VARIABLES = X,B,H,U 
ZONE T="Time 36.000000", I=501, DATAPACKING=POINT
0.000000	1.400000	0.000661	0.000000
1.000000	1.399000	0.000661	0.000000
2.000000	1.398000	0.000752	0.000000
3.000000	1.397000	0.000740	0.000000
4.000000	1.396000	0.000751	0.000000
5.000000	1.395000	0.000754	0.000000
6.000000	1.394000	0.000760	0.000000
7.000000	1.393000	0.000762	0.000000
8.000000	1.392000	0.000764	0.000000
9.000000	1.391000	0.000766	0.000000
10.000000	1.390000	0.000767	0.000000
11.000000	1.389000	0.000770	0.000000
12.000000	1.388000	0.000771	0.000000
13.000000	1.387000	0.000772	0.000000
14.000000	1.386000	0.000775	0.000000
15.000000	1.385000	0.000776	0.000000
16.000000	1.384000	0.000776	0.000000
17.000000	1.383000	0.000777	0.000000
18.000000	1.382000	0.000778	0.000000
19.000000	1.381000	0.000779	0.000000
20.000000	1.380000	0.000779	0.000000
21.000000	1.379000	0.000781	0.000000
22.000000	1.378000	0.000780	0.000000
23.000000	1.377000	0.000781	0.000000
24.000000	1.376000	0.000783	0.000000
25.000000	1.375000	0.000784	0.000000
26.000000	1.374000	0.000783	0.000000
27.000000	1.373000	0.000783	0.000000
28.000000	1.372000	0.000785	0.000000
29.000000	1.371000	0.000784	0.000000
30.000000	1.370000	0.000784	0.000000
31.000000	1.369000	0.000785	0.000000
32.000000	1.368000	0.000786	0.000000
33.000000	1.367000	0.000785	0.000000
34.000000	1.366000	0.000787	0.000000
35.000000	1.365000	0.000786	0.000000
36.000000	1.364000	0.000787	0.000000
37.000000	1.363000	0.000788	0.000000
38.000000	1.362000	0.000788	0.000000
39.000000	1.361000	0.000788	0.000000
40.000000	1.360000	0.000788	0.000000
41.000000	1.359000	0.000788	0.000000
42.000000	1.358000	0.000789	0.000000
43.000000	1.357000	0.000788	0.000000
44.000000	1.356000	0.000788	0.000000
45.000000	1.355000	0.000790	0.000000
46.000000	1.354000	0.000790	0.000000
47.000000	1.353000	0.000790	0.000000
48.000000	1.352000	0.000790	0.000000
49.000000	1.351000	0.000790	0.000000
50.000000	1.350000	0.000791	0.000000
51.000000	1.349000	0.000791	0.000000
52.000000	1.348000	0.000790	0.000000
53.000000	1.347000	0.000791	0.000000
54.000000	1.346000	0.000792	0.000000
55.000000	1.345000	0.000791	0.000000
56.000000	1.344000	0.000793	0.000000
57.000000	1.343000	0.000791	0.000000
58.000000	1.342000	0.000792	0.000000
59.000000	1.341000	0.000794	0.000000
60.000000	1.340000	0.000794	0.000000
61.000000	1.339000	0.000794	0.000000
62.000000	1.338000	0.000793	0.000000
63.000000	1.337000	0.000792	0.000000
64.000000	1.336000	0.000793	0.000000
65.000000	1.335000	0.000792	0.000000
66.000000	1.334000	0.000793	0.000000
67.000000	1.333000	0.000793	0.000000
68.000000	1.332000	0.000792	0.000000
69.000000	1.331000	0.000793	0.000000
70.000000	1.330000	0.000793	0.000000
71.000000	1.329000	0.000794	0.000000
72.000000	1.328000	0.000793	0.000000
73.000000	1.327000	0.000793	0.000000
74.000000	1.326000	0.000795	0.000000
75.000000	1.325000	0.000795	0.000000
76.000000	1.324000	0.000795	0.000000
77.000000	1.323000	0.000795	0.000000
78.000000	1.322000	0.000795	0.000000
79.000000	1.321000	0.000795	0.000000
80.000000	1.320000	0.000795	0.000000
81.000000	1.319000	0.000796	0.000000
82.000000	1.318000	0.000795	0.000000
83.000000	1.317000	0.000793	0.000000
84.000000	1.316000	0.000793	0.000000
85.000000	1.315000	0.000795	0.000000
86.000000	1.314000	0.000794	0.000000
87.000000	1.313000	0.000796	0.000000
88.000000	1.312000	0.000837	0.000000
89.000000	1.311000	0.001116	0.027437
90.000000	1.310000	0.001664	0.033828
91.000000	1.309000	0.001956	0.040814
92.000000	1.308000	0.002155	0.044289
93.000000	1.307000	0.002340	0.047257
94.000000	1.306000	0.002446	0.048717
95.000000	1.305000	0.002610	0.051261
96.000000	1.304000	0.002631	0.051585
97.000000	1.303000	0.002810	0.055412
98.000000	1.302000	0.002633	0.055195
99.000000	1.301000	0.002742	0.066267
100.000000	1.300000	0.001507	0.098728
101.000000	1.290000	0.001383	0.123779
102.000000	1.280000	0.001401	0.124673
103.000000	1.270000	0.001419	0.125468
104.000000	1.260000	0.001436	0.126243
105.000000	1.250000	0.001453	0.127001
106.000000	1.240000	0.001470	0.127743
107.000000	1.230000	0.001487	0.128472
108.000000	1.220000	0.001504	0.129187
109.000000	1.210000	0.001520	0.129890
110.000000	1.200000	0.001536	0.130583
111.000000	1.190000	0.001553	0.131265
112.000000	1.180000	0.001568	0.131939
113.000000	1.170000	0.001584	0.132603
114.000000	1.160000	0.001600	0.133260
115.000000	1.150000	0.001616	0.133910
116.000000	1.140000	0.001631	0.134552
117.000000	1.130000	0.001647	0.135188
118.000000	1.120000	0.001662	0.135819
119.000000	1.110000	0.001677	0.136443
120.000000	1.100000	0.001693	0.137062
121.000000	1.090000	0.001708	0.137676
122.000000	1.080000	0.001723	0.138286
123.000000	1.070000	0.001738	0.138891
124.000000	1.060000	0.001753	0.139491
125.000000	1.050000	0.001768	0.140088
126.000000	1.040000	0.001783	0.140681
127.000000	1.030000	0.001798	0.141270
128.000000	1.020000	0.001813	0.141856
129.000000	1.010000	0.001828	0.142439
130.000000	1.000000	0.001843	0.143018
131.000000	0.990000	0.001858	0.143594
132.000000	0.980000	0.001873	0.144168
133.000000	0.970000	0.001887	0.144739
134.000000	0.960000	0.001902	0.145307
135.000000	0.950000	0.001917	0.145872
136.000000	0.940000	0.001932	0.146436
137.000000	0.930000	0.001947	0.146996
138.000000	0.920000	0.001962	0.147555
139.000000	0.910000	0.001976	0.148111
140.000000	0.900000	0.001991	0.148665
141.000000	0.890000	0.002006	0.149218
142.000000	0.880000	0.002021	0.149768
143.000000	0.870000	0.002036	0.150316
144.000000	0.860000	0.002051	0.150862
145.000000	0.850000	0.002065	0.151407
146.000000	0.840000	0.002080	0.151950
147.000000	0.830000	0.002095	0.152491
148.000000	0.820000	0.002110	0.153031
149.000000	0.810000	0.002125	0.153569
150.000000	0.800000	0.002140	0.154105
151.000000	0.790000	0.002155	0.154640
152.000000	0.780000	0.002169	0.155173
153.000000	0.770000	0.002184	0.155705
154.000000	0.760000	0.002199	0.156236
155.000000	0.750000	0.002214	0.156765
156.000000	0.740000	0.002229	0.157292
157.000000	0.730000	0.002244	0.157819
158.000000	0.720000	0.002259	0.158344
159.000000	0.710000	0.002274	0.158868
160.000000	0.700000	0.002289	0.159391
161.000000	0.690000	0.002304	0.159912
162.000000	0.680000	0.002319	0.160432
163.000000	0.670000	0.002334	0.160951
164.000000	0.660000	0.002349	0.161469
165.000000	0.650000	0.002364	0.161986
166.000000	0.640000	0.002379	0.162502
167.000000	0.630000	0.002394	0.163016
168.000000	0.620000	0.002409	0.163530
169.000000	0.610000	0.002425	0.164042
170.000000	0.600000	0.002440	0.164554
171.000000	0.590000	0.002455	0.165064
172.000000	0.580000	0.002470	0.165574
173.000000	0.570000	0.002485	0.166081
174.000000	0.560000	0.002500	0.166591
175.000000	0.550000	0.002516	0.167094
176.000000	0.540000	0.002531	0.167605
177.000000	0.530000	0.002546	0.168101
178.000000	0.520000	0.002562	0.168618
179.000000	0.510000	0.002576	0.169101
180.000000	0.500000	0.002593	0.169633
181.000000	0.490000	0.002607	0.170088
182.000000	0.480000	0.002624	0.170657
183.000000	0.470000	0.002636	0.171055
184.000000	0.460000	0.002656	0.171702
185.000000	0.450000	0.002665	0.171982
186.000000	0.440000	0.002690	0.172796
187.000000	0.430000	0.002691	0.172829
188.000000	0.420000	0.002728	0.173998
189.000000	0.410000	0.002712	0.173513
190.000000	0.400000	0.002773	0.175426
191.000000	0.390000	0.002722	0.173860
192.000000	0.380000	0.002835	0.177328
193.000000	0.370000	0.002710	0.173506
194.000000	0.360000	0.002930	0.180215
195.000000	0.350000	0.002651	0.171678
196.000000	0.340000	0.003096	0.185141
197.000000	0.330000	0.002493	0.166699
198.000000	0.320000	0.003416	0.194286
199.000000	0.310000	0.002147	0.153064
200.000000	0.300000	0.005434	0.119390
201.000000	0.299000	0.009274	0.043822
202.000000	0.298000	0.007612	0.086229
203.000000	0.297000	0.009164	0.064263
204.000000	0.296000	0.008956	0.078234
205.000000	0.295000	0.009805	0.071783
206.000000	0.294000	0.010050	0.077369
207.000000	0.293000	0.010673	0.075971
208.000000	0.292000	0.011080	0.078851
209.000000	0.291000	0.011628	0.079234
210.000000	0.290000	0.012098	0.081196
211.000000	0.289000	0.012623	0.082240
212.000000	0.288000	0.013119	0.083880
213.000000	0.287000	0.013637	0.085176
214.000000	0.286000	0.014146	0.086697
215.000000	0.285000	0.014663	0.088085
216.000000	0.284000	0.015178	0.089555
217.000000	0.283000	0.015696	0.090970
218.000000	0.282000	0.016214	0.092411
219.000000	0.281000	0.016733	0.093824
220.000000	0.280000	0.017252	0.095240
221.000000	0.279000	0.017772	0.096639
222.000000	0.278000	0.018293	0.098031
223.000000	0.277000	0.018813	0.099409
224.000000	0.276000	0.019334	0.100775
225.000000	0.275000	0.019855	0.102127
226.000000	0.274000	0.020376	0.103467
227.000000	0.273000	0.020897	0.104793
228.000000	0.272000	0.021418	0.106104
229.000000	0.271000	0.021939	0.107401
230.000000	0.270000	0.022460	0.108684
231.000000	0.269000	0.022981	0.109952
232.000000	0.268000	0.023503	0.111205
233.000000	0.267000	0.024024	0.112443
234.000000	0.266000	0.024546	0.113665
235.000000	0.265000	0.025067	0.114872
236.000000	0.264000	0.025589	0.116062
237.000000	0.263000	0.026111	0.117236
238.000000	0.262000	0.026633	0.118393
239.000000	0.261000	0.027156	0.119533
240.000000	0.260000	0.027679	0.120655
241.000000	0.259000	0.028203	0.121759
242.000000	0.258000	0.028727	0.122843
243.000000	0.257000	0.029253	0.123907
244.000000	0.256000	0.029779	0.124950
245.000000	0.255000	0.030306	0.125970
246.000000	0.254000	0.030834	0.126967
247.000000	0.253000	0.031364	0.127939
248.000000	0.252000	0.031895	0.128883
249.000000	0.251000	0.032429	0.129797
250.000000	0.250000	0.032964	0.130680
251.000000	0.249000	0.033502	0.131527
252.000000	0.248000	0.034043	0.132335
253.000000	0.247000	0.034588	0.133100
254.000000	0.246000	0.035136	0.133815
255.000000	0.245000	0.035689	0.134475
256.000000	0.244000	0.036248	0.135071
257.000000	0.243000	0.036812	0.135592
258.000000	0.242000	0.037385	0.136026
259.000000	0.241000	0.037966	0.136356
260.000000	0.240000	0.038558	0.136560
261.000000	0.239000	0.039165	0.136606
262.000000	0.238000	0.039788	0.136454
263.000000	0.237000	0.040433	0.136040
264.000000	0.236000	0.041108	0.135267
265.000000	0.235000	0.041826	0.133970
266.000000	0.234000	0.042608	0.131839
267.000000	0.233000	0.043502	0.128240
268.000000	0.232000	0.044607	0.121794
269.000000	0.231000	0.046139	0.109492
270.000000	0.230000	0.048531	0.085559
271.000000	0.229000	0.052380	0.042833
272.000000	0.228000	0.057762	-0.017010
273.000000	0.227000	0.063161	-0.071923
274.000000	0.226000	0.066504	-0.098199
275.000000	0.225000	0.067778	-0.099483
276.000000	0.224000	0.068606	-0.096143
277.000000	0.223000	0.069994	-0.099613
278.000000	0.222000	0.071796	-0.107566
279.000000	0.221000	0.073549	-0.114520
280.000000	0.220000	0.075102	-0.118997
281.000000	0.219000	0.076575	-0.122499
282.000000	0.218000	0.078074	-0.126198
283.000000	0.217000	0.079598	-0.130045
284.000000	0.216000	0.081113	-0.133671
285.000000	0.215000	0.082609	-0.137003
286.000000	0.214000	0.084098	-0.140156
287.000000	0.213000	0.085583	-0.143200
288.000000	0.212000	0.087067	-0.146138
289.000000	0.211000	0.088547	-0.148968
290.000000	0.210000	0.090024	-0.151697
291.000000	0.209000	0.091498	-0.154337
292.000000	0.208000	0.092971	-0.156896
293.000000	0.207000	0.094441	-0.159382
294.000000	0.206000	0.095911	-0.161800
295.000000	0.205000	0.097379	-0.164154
296.000000	0.204000	0.098846	-0.166450
297.000000	0.203000	0.100312	-0.168691
298.000000	0.202000	0.101778	-0.170881
299.000000	0.201000	0.103242	-0.173023
300.000000	0.200000	0.104707	-0.175121
301.000000	0.199000	0.106170	-0.177176
302.000000	0.198000	0.107633	-0.179191
303.000000	0.197000	0.109096	-0.181169
304.000000	0.196000	0.110559	-0.183111
305.000000	0.195000	0.112021	-0.185020
306.000000	0.194000	0.113483	-0.186896
307.000000	0.193000	0.114945	-0.188742
308.000000	0.192000	0.116406	-0.190558
309.000000	0.191000	0.117868	-0.192347
310.000000	0.190000	0.119329	-0.194109
311.000000	0.189000	0.120790	-0.195846
312.000000	0.188000	0.122251	-0.197559
313.000000	0.187000	0.123712	-0.199248
314.000000	0.186000	0.125173	-0.200915
315.000000	0.185000	0.126634	-0.202560
316.000000	0.184000	0.128095	-0.204185
317.000000	0.183000	0.129555	-0.205790
318.000000	0.182000	0.131016	-0.207375
319.000000	0.181000	0.132477	-0.208942
320.000000	0.180000	0.133937	-0.210491
321.000000	0.179000	0.135398	-0.212022
322.000000	0.178000	0.136858	-0.213537
323.000000	0.177000	0.138319	-0.215036
324.000000	0.176000	0.139779	-0.216518
325.000000	0.175000	0.141240	-0.217986
326.000000	0.174000	0.142700	-0.219438
327.000000	0.173000	0.144160	-0.220876
328.000000	0.172000	0.145621	-0.222301
329.000000	0.171000	0.147081	-0.223711
330.000000	0.170000	0.148541	-0.225108
331.000000	0.169000	0.150001	-0.226493
332.000000	0.168000	0.151461	-0.227864
333.000000	0.167000	0.152921	-0.229224
334.000000	0.166000	0.154381	-0.230571
335.000000	0.165000	0.155841	-0.231907
336.000000	0.164000	0.157301	-0.233231
337.000000	0.163000	0.158761	-0.234544
338.000000	0.162000	0.160220	-0.235846
339.000000	0.161000	0.161680	-0.237138
340.000000	0.160000	0.163140	-0.238419
341.000000	0.159000	0.164599	-0.239690
342.000000	0.158000	0.166058	-0.240950
343.000000	0.157000	0.167518	-0.242201
344.000000	0.156000	0.168977	-0.243443
345.000000	0.155000	0.170436	-0.244675
346.000000	0.154000	0.171895	-0.245897
347.000000	0.153000	0.173353	-0.247111
348.000000	0.152000	0.174812	-0.248316
349.000000	0.151000	0.176271	-0.249512
350.000000	0.150000	0.177729	-0.250699
351.000000	0.149000	0.179187	-0.251878
352.000000	0.148000	0.180646	-0.253048
353.000000	0.147000	0.182104	-0.254211
354.000000	0.146000	0.183561	-0.255365
355.000000	0.145000	0.185019	-0.256512
356.000000	0.144000	0.186477	-0.257651
357.000000	0.143000	0.187934	-0.258782
358.000000	0.142000	0.189391	-0.259906
359.000000	0.141000	0.190849	-0.261022
360.000000	0.140000	0.192306	-0.262131
361.000000	0.139000	0.193762	-0.263233
362.000000	0.138000	0.195219	-0.264328
363.000000	0.137000	0.196675	-0.265416
364.000000	0.136000	0.198132	-0.266497
365.000000	0.135000	0.199588	-0.267572
366.000000	0.134000	0.201044	-0.268640
367.000000	0.133000	0.202499	-0.269701
368.000000	0.132000	0.203955	-0.270756
369.000000	0.131000	0.205410	-0.271804
370.000000	0.130000	0.206865	-0.272847
371.000000	0.129000	0.208320	-0.273883
372.000000	0.128000	0.209775	-0.274913
373.000000	0.127000	0.211230	-0.275937
374.000000	0.126000	0.212684	-0.276955
375.000000	0.125000	0.214138	-0.277967
376.000000	0.124000	0.215592	-0.278974
377.000000	0.123000	0.217046	-0.279975
378.000000	0.122000	0.218499	-0.280970
379.000000	0.121000	0.219953	-0.281960
380.000000	0.120000	0.221406	-0.282945
381.000000	0.119000	0.222859	-0.283924
382.000000	0.118000	0.224311	-0.284897
383.000000	0.117000	0.225764	-0.285866
384.000000	0.116000	0.227216	-0.286829
385.000000	0.115000	0.228668	-0.287787
386.000000	0.114000	0.230120	-0.288740
387.000000	0.113000	0.231572	-0.289688
388.000000	0.112000	0.233023	-0.290632
389.000000	0.111000	0.234474	-0.291570
390.000000	0.110000	0.235925	-0.292503
391.000000	0.109000	0.237376	-0.293432
392.000000	0.108000	0.238826	-0.294356
393.000000	0.107000	0.240276	-0.295275
394.000000	0.106000	0.241726	-0.296190
395.000000	0.105000	0.243176	-0.297100
396.000000	0.104000	0.244626	-0.298006
397.000000	0.103000	0.246075	-0.298907
398.000000	0.102000	0.247524	-0.299804
399.000000	0.101000	0.248973	-0.300696
400.000000	0.100000	0.250421	-0.301585
401.000000	0.099000	0.251870	-0.302469
402.000000	0.098000	0.253318	-0.303348
403.000000	0.097000	0.254766	-0.304224
404.000000	0.096000	0.256213	-0.305095
405.000000	0.095000	0.257660	-0.305962
406.000000	0.094000	0.259108	-0.306826
407.000000	0.093000	0.260554	-0.307685
408.000000	0.092000	0.262001	-0.308540
409.000000	0.091000	0.263447	-0.309391
410.000000	0.090000	0.264893	-0.310239
411.000000	0.089000	0.266339	-0.311083
412.000000	0.088000	0.267785	-0.311922
413.000000	0.087000	0.269230	-0.312758
414.000000	0.086000	0.270675	-0.313591
415.000000	0.085000	0.272120	-0.314419
416.000000	0.084000	0.273565	-0.315244
417.000000	0.083000	0.275009	-0.316065
418.000000	0.082000	0.276453	-0.316883
419.000000	0.081000	0.277897	-0.317697
420.000000	0.080000	0.279341	-0.318508
421.000000	0.079000	0.280784	-0.319315
422.000000	0.078000	0.282227	-0.320119
423.000000	0.077000	0.283670	-0.320919
424.000000	0.076000	0.285112	-0.321716
425.000000	0.075000	0.286554	-0.322509
426.000000	0.074000	0.287996	-0.323299
427.000000	0.073000	0.289438	-0.324086
428.000000	0.072000	0.290880	-0.324870
429.000000	0.071000	0.292321	-0.325650
430.000000	0.070000	0.293762	-0.326427
431.000000	0.069000	0.295202	-0.327201
432.000000	0.068000	0.296643	-0.327972
433.000000	0.067000	0.298083	-0.328739
434.000000	0.066000	0.299523	-0.329504
435.000000	0.065000	0.300962	-0.330265
436.000000	0.064000	0.302402	-0.331024
437.000000	0.063000	0.303841	-0.331779
438.000000	0.062000	0.305279	-0.332531
439.000000	0.061000	0.306718	-0.333281
440.000000	0.060000	0.308156	-0.334027
441.000000	0.059000	0.309594	-0.334771
442.000000	0.058000	0.311032	-0.335511
443.000000	0.057000	0.312469	-0.336249
444.000000	0.056000	0.313906	-0.336984
445.000000	0.055000	0.315343	-0.337716
446.000000	0.054000	0.316780	-0.338445
447.000000	0.053000	0.318216	-0.339172
448.000000	0.052000	0.319652	-0.339895
449.000000	0.051000	0.321088	-0.340616
450.000000	0.050000	0.322524	-0.341334
451.000000	0.049000	0.323959	-0.342050
452.000000	0.048000	0.325394	-0.342763
453.000000	0.047000	0.326829	-0.343473
454.000000	0.046000	0.328263	-0.344181
455.000000	0.045000	0.329697	-0.344886
456.000000	0.044000	0.331131	-0.345588
457.000000	0.043000	0.332565	-0.346288
458.000000	0.042000	0.333998	-0.346985
459.000000	0.041000	0.335431	-0.347680
460.000000	0.040000	0.336864	-0.348372
461.000000	0.039000	0.338296	-0.349061
462.000000	0.038000	0.339728	-0.349749
463.000000	0.037000	0.341160	-0.350433
464.000000	0.036000	0.342592	-0.351116
465.000000	0.035000	0.344024	-0.351795
466.000000	0.034000	0.345455	-0.352473
467.000000	0.033000	0.346885	-0.353148
468.000000	0.032000	0.348316	-0.353821
469.000000	0.031000	0.349746	-0.354491
470.000000	0.030000	0.351176	-0.355159
471.000000	0.029000	0.352606	-0.355825
472.000000	0.028000	0.354036	-0.356488
473.000000	0.027000	0.355465	-0.357149
474.000000	0.026000	0.356894	-0.357808
475.000000	0.025000	0.358323	-0.358464
476.000000	0.024000	0.359751	-0.359119
477.000000	0.023000	0.361179	-0.359771
478.000000	0.022000	0.362607	-0.360421
479.000000	0.021000	0.364035	-0.361068
480.000000	0.020000	0.365462	-0.361714
481.000000	0.019000	0.366889	-0.362357
482.000000	0.018000	0.368316	-0.362998
483.000000	0.017000	0.369742	-0.363638
484.000000	0.016000	0.371168	-0.364274
485.000000	0.015000	0.372594	-0.364910
486.000000	0.014000	0.374020	-0.365541
487.000000	0.013000	0.375445	-0.366174
488.000000	0.012000	0.376871	-0.366799
489.000000	0.011000	0.378295	-0.367431
490.000000	0.010000	0.379721	-0.368048
491.000000	0.009000	0.381143	-0.368682
492.000000	0.008000	0.382571	-0.369285
493.000000	0.007000	0.383988	-0.369930
494.000000	0.006000	0.385422	-0.370505
495.000000	0.005000	0.386829	-0.371185
496.000000	0.004000	0.388278	-0.371695
497.000000	0.003000	0.389661	-0.372466
498.000000	0.002000	0.391145	-0.372825
499.000000	0.001000	0.392471	-0.373821
500.000000	0.000000	0.394043	-0.373821
