VARIABLES = X,Ksi,B,H,U,tau 
ZONE T="Time 40.000000", I=1100, DATAPACKING=POINT
-100.000000	0.009570	-3.333333	3.342903	0.027082 	0.003494
-99.900000	0.004345	-3.330000	3.334345	0.035982 	0.003499
-99.800000	0.006507	-3.326667	3.333174	0.032220 	0.003499
-99.700000	0.005466	-3.323333	3.328799	0.033949 	0.003502
-99.600000	0.005814	-3.320000	3.325814	0.033295 	0.003503
-99.500000	0.005559	-3.316667	3.322226	0.033675 	0.003505
-99.400000	0.005566	-3.313333	3.318899	0.033605 	0.003507
-99.300000	0.005459	-3.310000	3.315459	0.033729 	0.003509
-99.200000	0.005401	-3.306667	3.312068	0.033768 	0.003510
-99.100000	0.005321	-3.303333	3.308654	0.033844 	0.003512
-99.000000	0.005251	-3.300000	3.305251	0.033903 	0.003514
-98.900000	0.005176	-3.296667	3.301843	0.033968 	0.003516
-98.800000	0.005103	-3.293333	3.298436	0.034030 	0.003518
-98.700000	0.005029	-3.290000	3.295029	0.034092 	0.003520
-98.600000	0.004956	-3.286667	3.291623	0.034153 	0.003521
-98.500000	0.004882	-3.283333	3.288215	0.034214 	0.003523
-98.400000	0.004808	-3.280000	3.284808	0.034274 	0.003525
-98.300000	0.004733	-3.276667	3.281400	0.034334 	0.003527
-98.200000	0.004659	-3.273333	3.277992	0.034393 	0.003529
-98.100000	0.004584	-3.270000	3.274584	0.034452 	0.003531
-98.000000	0.004510	-3.266667	3.271177	0.034510 	0.003532
-97.900000	0.004435	-3.263333	3.267768	0.034567 	0.003534
-97.800000	0.004360	-3.260000	3.264360	0.034624 	0.003536
-97.700000	0.004285	-3.256667	3.260952	0.034680 	0.003538
-97.600000	0.004210	-3.253333	3.257543	0.034735 	0.003540
-97.500000	0.004134	-3.250000	3.254134	0.034790 	0.003542
-97.400000	0.004059	-3.246667	3.250726	0.034845 	0.003543
-97.300000	0.003983	-3.243333	3.247316	0.034898 	0.003545
-97.200000	0.003907	-3.240000	3.243907	0.034951 	0.003547
-97.100000	0.003831	-3.236667	3.240498	0.035004 	0.003549
-97.000000	0.003755	-3.233333	3.237088	0.035055 	0.003551
-96.900000	0.003679	-3.230000	3.233679	0.035107 	0.003553
-96.800000	0.003603	-3.226667	3.230270	0.035157 	0.003555
-96.700000	0.003526	-3.223333	3.226859	0.035207 	0.003557
-96.600000	0.003449	-3.220000	3.223449	0.035256 	0.003558
-96.500000	0.003373	-3.216667	3.220040	0.035305 	0.003560
-96.400000	0.003296	-3.213333	3.216629	0.035353 	0.003562
-96.300000	0.003219	-3.210000	3.213219	0.035400 	0.003564
-96.200000	0.003142	-3.206667	3.209809	0.035447 	0.003566
-96.100000	0.003064	-3.203333	3.206397	0.035493 	0.003568
-96.000000	0.002987	-3.200000	3.202987	0.035538 	0.003570
-95.900000	0.002909	-3.196667	3.199576	0.035583 	0.003572
-95.800000	0.002832	-3.193333	3.196165	0.035627 	0.003574
-95.700000	0.002754	-3.190000	3.192754	0.035671 	0.003575
-95.600000	0.002676	-3.186667	3.189343	0.035713 	0.003577
-95.500000	0.002598	-3.183333	3.185931	0.035755 	0.003579
-95.400000	0.002520	-3.180000	3.182520	0.035797 	0.003581
-95.300000	0.002442	-3.176667	3.179109	0.035837 	0.003583
-95.200000	0.002363	-3.173333	3.175696	0.035877 	0.003585
-95.100000	0.002285	-3.170000	3.172285	0.035917 	0.003587
-95.000000	0.002206	-3.166667	3.168873	0.035955 	0.003589
-94.900000	0.002128	-3.163333	3.165461	0.035993 	0.003591
-94.800000	0.002049	-3.160000	3.162049	0.036031 	0.003593
-94.700000	0.001970	-3.156667	3.158637	0.036067 	0.003595
-94.600000	0.001891	-3.153333	3.155224	0.036103 	0.003597
-94.500000	0.001812	-3.150000	3.151812	0.036138 	0.003599
-94.400000	0.001733	-3.146667	3.148400	0.036173 	0.003601
-94.300000	0.001653	-3.143333	3.144986	0.036207 	0.003603
-94.200000	0.001574	-3.140000	3.141574	0.036240 	0.003604
-94.100000	0.001494	-3.136667	3.138161	0.036272 	0.003606
-94.000000	0.001415	-3.133333	3.134748	0.036304 	0.003608
-93.900000	0.001335	-3.130000	3.131335	0.036335 	0.003610
-93.800000	0.001255	-3.126667	3.127922	0.036365 	0.003612
-93.700000	0.001175	-3.123333	3.124508	0.036394 	0.003614
-93.600000	0.001095	-3.120000	3.121095	0.036423 	0.003616
-93.500000	0.001015	-3.116667	3.117682	0.036451 	0.003618
-93.400000	0.000935	-3.113333	3.114268	0.036479 	0.003620
-93.300000	0.000855	-3.110000	3.110855	0.036505 	0.003622
-93.200000	0.000774	-3.106667	3.107441	0.036531 	0.003624
-93.100000	0.000694	-3.103333	3.104027	0.036556 	0.003626
-93.000000	0.000613	-3.100000	3.100613	0.036580 	0.003628
-92.900000	0.000533	-3.096667	3.097200	0.036604 	0.003630
-92.800000	0.000452	-3.093333	3.093785	0.036627 	0.003632
-92.700000	0.000371	-3.090000	3.090371	0.036649 	0.003634
-92.600000	0.000290	-3.086667	3.086957	0.036670 	0.003636
-92.500000	0.000209	-3.083333	3.083542	0.036691 	0.003638
-92.400000	0.000128	-3.080000	3.080128	0.036711 	0.003640
-92.300000	0.000047	-3.076667	3.076714	0.036730 	0.003642
-92.200000	-0.000034	-3.073333	3.073299	0.036748 	0.003644
-92.100000	-0.000115	-3.070000	3.069885	0.036765 	0.003646
-92.000000	-0.000197	-3.066667	3.066470	0.036782 	0.003648
-91.900000	-0.000278	-3.063333	3.063055	0.036798 	0.003650
-91.800000	-0.000359	-3.060000	3.059641	0.036813 	0.003652
-91.700000	-0.000441	-3.056667	3.056226	0.036828 	0.003654
-91.600000	-0.000523	-3.053333	3.052810	0.036841 	0.003657
-91.500000	-0.000604	-3.050000	3.049396	0.036854 	0.003659
-91.400000	-0.000686	-3.046667	3.045981	0.036866 	0.003661
-91.300000	-0.000768	-3.043333	3.042565	0.036877 	0.003663
-91.200000	-0.000850	-3.040000	3.039150	0.036888 	0.003665
-91.100000	-0.000932	-3.036667	3.035735	0.036897 	0.003667
-91.000000	-0.001014	-3.033333	3.032319	0.036906 	0.003669
-90.900000	-0.001096	-3.030000	3.028904	0.036914 	0.003671
-90.800000	-0.001178	-3.026667	3.025489	0.036922 	0.003673
-90.700000	-0.001260	-3.023333	3.022073	0.036928 	0.003675
-90.600000	-0.001342	-3.020000	3.018658	0.036934 	0.003677
-90.500000	-0.001424	-3.016667	3.015243	0.036939 	0.003679
-90.400000	-0.001507	-3.013333	3.011826	0.036943 	0.003681
-90.300000	-0.001589	-3.010000	3.008411	0.036946 	0.003683
-90.200000	-0.001671	-3.006667	3.004996	0.036948 	0.003685
-90.100000	-0.001754	-3.003333	3.001579	0.036950 	0.003688
-90.000000	-0.001836	-3.000000	2.998164	0.036950 	0.003690
-89.900000	-0.001919	-2.996667	2.994748	0.036950 	0.003692
-89.800000	-0.002001	-2.993333	2.991332	0.036949 	0.003694
-89.700000	-0.002084	-2.990000	2.987916	0.036947 	0.003696
-89.600000	-0.002166	-2.986667	2.984501	0.036945 	0.003698
-89.500000	-0.002249	-2.983333	2.981084	0.036941 	0.003700
-89.400000	-0.002332	-2.980000	2.977668	0.036937 	0.003702
-89.300000	-0.002414	-2.976667	2.974253	0.036932 	0.003704
-89.200000	-0.002497	-2.973333	2.970836	0.036926 	0.003707
-89.100000	-0.002580	-2.970000	2.967420	0.036919 	0.003709
-89.000000	-0.002663	-2.966667	2.964004	0.036911 	0.003711
-88.900000	-0.002746	-2.963333	2.960587	0.036903 	0.003713
-88.800000	-0.002828	-2.960000	2.957172	0.036893 	0.003715
-88.700000	-0.002911	-2.956667	2.953756	0.036883 	0.003717
-88.600000	-0.002994	-2.953333	2.950339	0.036872 	0.003719
-88.500000	-0.003077	-2.950000	2.946923	0.036860 	0.003722
-88.400000	-0.003160	-2.946667	2.943507	0.036847 	0.003724
-88.300000	-0.003243	-2.943333	2.940090	0.036833 	0.003726
-88.200000	-0.003326	-2.940000	2.936674	0.036818 	0.003728
-88.100000	-0.003409	-2.936667	2.933258	0.036803 	0.003730
-88.000000	-0.003492	-2.933333	2.929841	0.036787 	0.003732
-87.900000	-0.003575	-2.930000	2.926425	0.036769 	0.003735
-87.800000	-0.003658	-2.926667	2.923009	0.036751 	0.003737
-87.700000	-0.003741	-2.923333	2.919592	0.036732 	0.003739
-87.600000	-0.003824	-2.920000	2.916176	0.036712 	0.003741
-87.500000	-0.003907	-2.916667	2.912760	0.036691 	0.003743
-87.400000	-0.003990	-2.913333	2.909343	0.036670 	0.003746
-87.300000	-0.004073	-2.910000	2.905927	0.036647 	0.003748
-87.200000	-0.004156	-2.906667	2.902511	0.036623 	0.003750
-87.100000	-0.004239	-2.903333	2.899094	0.036599 	0.003752
-87.000000	-0.004321	-2.900000	2.895679	0.036574 	0.003754
-86.900000	-0.004404	-2.896667	2.892263	0.036548 	0.003757
-86.800000	-0.004487	-2.893333	2.888846	0.036520 	0.003759
-86.700000	-0.004570	-2.890000	2.885430	0.036492 	0.003761
-86.600000	-0.004653	-2.886667	2.882014	0.036463 	0.003763
-86.500000	-0.004736	-2.883333	2.878597	0.036434 	0.003766
-86.400000	-0.004819	-2.880000	2.875181	0.036403 	0.003768
-86.300000	-0.004902	-2.876667	2.871765	0.036371 	0.003770
-86.200000	-0.004985	-2.873333	2.868348	0.036339 	0.003772
-86.100000	-0.005067	-2.870000	2.864933	0.036305 	0.003775
-86.000000	-0.005150	-2.866667	2.861517	0.036271 	0.003777
-85.900000	-0.005233	-2.863333	2.858100	0.036235 	0.003779
-85.800000	-0.005316	-2.860000	2.854684	0.036199 	0.003781
-85.700000	-0.005398	-2.856667	2.851269	0.036162 	0.003784
-85.600000	-0.005481	-2.853333	2.847852	0.036123 	0.003786
-85.500000	-0.005563	-2.850000	2.844437	0.036084 	0.003788
-85.400000	-0.005646	-2.846667	2.841021	0.036044 	0.003790
-85.300000	-0.005729	-2.843333	2.837604	0.036003 	0.003793
-85.200000	-0.005811	-2.840000	2.834189	0.035961 	0.003795
-85.100000	-0.005893	-2.836667	2.830774	0.035918 	0.003797
-85.000000	-0.005976	-2.833333	2.827357	0.035875 	0.003800
-84.900000	-0.006058	-2.830000	2.823942	0.035830 	0.003802
-84.800000	-0.006140	-2.826667	2.820527	0.035784 	0.003804
-84.700000	-0.006223	-2.823333	2.817110	0.035737 	0.003806
-84.600000	-0.006305	-2.820000	2.813695	0.035690 	0.003809
-84.500000	-0.006387	-2.816667	2.810280	0.035641 	0.003811
-84.400000	-0.006469	-2.813333	2.806864	0.035592 	0.003813
-84.300000	-0.006551	-2.810000	2.803449	0.035541 	0.003816
-84.200000	-0.006633	-2.806667	2.800034	0.035490 	0.003818
-84.100000	-0.006715	-2.803333	2.796618	0.035437 	0.003820
-84.000000	-0.006797	-2.800000	2.793203	0.035384 	0.003823
-83.900000	-0.006878	-2.796667	2.789789	0.035330 	0.003825
-83.800000	-0.006960	-2.793333	2.786373	0.035274 	0.003827
-83.700000	-0.007042	-2.790000	2.782958	0.035218 	0.003830
-83.600000	-0.007123	-2.786667	2.779544	0.035161 	0.003832
-83.500000	-0.007205	-2.783333	2.776128	0.035103 	0.003834
-83.400000	-0.007286	-2.780000	2.772714	0.035043 	0.003837
-83.300000	-0.007367	-2.776667	2.769300	0.034983 	0.003839
-83.200000	-0.007449	-2.773333	2.765884	0.034922 	0.003841
-83.100000	-0.007530	-2.770000	2.762470	0.034860 	0.003844
-83.000000	-0.007611	-2.766667	2.759056	0.034797 	0.003846
-82.900000	-0.007692	-2.763333	2.755641	0.034733 	0.003849
-82.800000	-0.007773	-2.760000	2.752227	0.034668 	0.003851
-82.700000	-0.007853	-2.756667	2.748814	0.034602 	0.003853
-82.600000	-0.007934	-2.753333	2.745399	0.034535 	0.003856
-82.500000	-0.008015	-2.750000	2.741985	0.034467 	0.003858
-82.400000	-0.008095	-2.746667	2.738572	0.034398 	0.003861
-82.300000	-0.008175	-2.743333	2.735158	0.034328 	0.003863
-82.200000	-0.008256	-2.740000	2.731744	0.034257 	0.003865
-82.100000	-0.008336	-2.736667	2.728331	0.034185 	0.003868
-82.000000	-0.008416	-2.733333	2.724917	0.034112 	0.003870
-81.900000	-0.008496	-2.730000	2.721504	0.034037 	0.003873
-81.800000	-0.008576	-2.726667	2.718091	0.033962 	0.003875
-81.700000	-0.008655	-2.723333	2.714678	0.033886 	0.003878
-81.600000	-0.008735	-2.720000	2.711265	0.033809 	0.003880
-81.500000	-0.008814	-2.716667	2.707853	0.033731 	0.003882
-81.400000	-0.008894	-2.713333	2.704439	0.033652 	0.003885
-81.300000	-0.008973	-2.710000	2.701027	0.033572 	0.003887
-81.200000	-0.009052	-2.706667	2.697615	0.033491 	0.003890
-81.100000	-0.009131	-2.703333	2.694202	0.033409 	0.003892
-81.000000	-0.009210	-2.700000	2.690790	0.033326 	0.003895
-80.900000	-0.009289	-2.696667	2.687378	0.033242 	0.003897
-80.800000	-0.009367	-2.693333	2.683966	0.033157 	0.003900
-80.700000	-0.009446	-2.690000	2.680554	0.033071 	0.003902
-80.600000	-0.009524	-2.686667	2.677143	0.032984 	0.003905
-80.500000	-0.009602	-2.683333	2.673731	0.032896 	0.003907
-80.400000	-0.009680	-2.680000	2.670320	0.032807 	0.003910
-80.300000	-0.009758	-2.676667	2.666909	0.032716 	0.003912
-80.200000	-0.009836	-2.673333	2.663497	0.032625 	0.003915
-80.100000	-0.009913	-2.670000	2.660087	0.032533 	0.003917
-80.000000	-0.009991	-2.666667	2.656676	0.032440 	0.003920
-79.900000	-0.010068	-2.663333	2.653265	0.032346 	0.003922
-79.800000	-0.010145	-2.660000	2.649855	0.032250 	0.003925
-79.700000	-0.010222	-2.656667	2.646445	0.032154 	0.003927
-79.600000	-0.010299	-2.653333	2.643034	0.032057 	0.003930
-79.500000	-0.010375	-2.650000	2.639625	0.031958 	0.003932
-79.400000	-0.010452	-2.646667	2.636215	0.031859 	0.003935
-79.300000	-0.010528	-2.643333	2.632805	0.031759 	0.003937
-79.200000	-0.010604	-2.640000	2.629396	0.031657 	0.003940
-79.100000	-0.010680	-2.636667	2.625987	0.031555 	0.003942
-79.000000	-0.010756	-2.633333	2.622577	0.031451 	0.003945
-78.900000	-0.010831	-2.630000	2.619169	0.031347 	0.003948
-78.800000	-0.010907	-2.626667	2.615760	0.031241 	0.003950
-78.700000	-0.010982	-2.623333	2.612351	0.031135 	0.003953
-78.600000	-0.011057	-2.620000	2.608943	0.031027 	0.003955
-78.500000	-0.011131	-2.616667	2.605536	0.030918 	0.003958
-78.400000	-0.011206	-2.613333	2.602127	0.030809 	0.003961
-78.300000	-0.011281	-2.610000	2.598719	0.030698 	0.003963
-78.200000	-0.011355	-2.606667	2.595312	0.030586 	0.003966
-78.100000	-0.011429	-2.603333	2.591904	0.030473 	0.003968
-78.000000	-0.011503	-2.600000	2.588497	0.030359 	0.003971
-77.900000	-0.011576	-2.596667	2.585091	0.030245 	0.003974
-77.800000	-0.011650	-2.593333	2.581683	0.030129 	0.003976
-77.700000	-0.011723	-2.590000	2.578277	0.030012 	0.003979
-77.600000	-0.011796	-2.586667	2.574871	0.029894 	0.003981
-77.500000	-0.011868	-2.583333	2.571465	0.029775 	0.003984
-77.400000	-0.011941	-2.580000	2.568059	0.029654 	0.003987
-77.300000	-0.012013	-2.576667	2.564654	0.029533 	0.003989
-77.200000	-0.012085	-2.573333	2.561248	0.029411 	0.003992
-77.100000	-0.012157	-2.570000	2.557843	0.029288 	0.003995
-77.000000	-0.012229	-2.566667	2.554438	0.029164 	0.003997
-76.900000	-0.012300	-2.563333	2.551033	0.029038 	0.004000
-76.800000	-0.012371	-2.560000	2.547629	0.028912 	0.004003
-76.700000	-0.012442	-2.556667	2.544225	0.028785 	0.004005
-76.600000	-0.012513	-2.553333	2.540820	0.028656 	0.004008
-76.500000	-0.012584	-2.550000	2.537416	0.028527 	0.004011
-76.400000	-0.012654	-2.546667	2.534013	0.028396 	0.004013
-76.300000	-0.012724	-2.543333	2.530609	0.028265 	0.004016
-76.200000	-0.012793	-2.540000	2.527207	0.028132 	0.004019
-76.100000	-0.012863	-2.536667	2.523804	0.027998 	0.004022
-76.000000	-0.012932	-2.533333	2.520401	0.027863 	0.004024
-75.900000	-0.013001	-2.530000	2.516999	0.027728 	0.004027
-75.800000	-0.013070	-2.526667	2.513597	0.027591 	0.004030
-75.700000	-0.013138	-2.523333	2.510195	0.027453 	0.004032
-75.600000	-0.013206	-2.520000	2.506794	0.027314 	0.004035
-75.500000	-0.013274	-2.516667	2.503393	0.027174 	0.004038
-75.400000	-0.013342	-2.513333	2.499991	0.027033 	0.004041
-75.300000	-0.013409	-2.510000	2.496591	0.026891 	0.004043
-75.200000	-0.013476	-2.506667	2.493191	0.026748 	0.004046
-75.100000	-0.013543	-2.503333	2.489790	0.026604 	0.004049
-75.000000	-0.013609	-2.500000	2.486391	0.026459 	0.004052
-74.900000	-0.013675	-2.496667	2.482992	0.026312 	0.004054
-74.800000	-0.013741	-2.493333	2.479592	0.026165 	0.004057
-74.700000	-0.013807	-2.490000	2.476193	0.026017 	0.004060
-74.600000	-0.013872	-2.486667	2.472795	0.025867 	0.004063
-74.500000	-0.013937	-2.483333	2.469396	0.025717 	0.004066
-74.400000	-0.014002	-2.480000	2.465998	0.025565 	0.004068
-74.300000	-0.014066	-2.476667	2.462601	0.025413 	0.004071
-74.200000	-0.014130	-2.473333	2.459203	0.025259 	0.004074
-74.100000	-0.014194	-2.470000	2.455806	0.025104 	0.004077
-74.000000	-0.014257	-2.466667	2.452410	0.024949 	0.004080
-73.900000	-0.014320	-2.463333	2.449013	0.024792 	0.004082
-73.800000	-0.014383	-2.460000	2.445617	0.024634 	0.004085
-73.700000	-0.014446	-2.456667	2.442221	0.024475 	0.004088
-73.600000	-0.014508	-2.453333	2.438825	0.024315 	0.004091
-73.500000	-0.014569	-2.450000	2.435431	0.024154 	0.004094
-73.400000	-0.014631	-2.446667	2.432036	0.023992 	0.004097
-73.300000	-0.014692	-2.443333	2.428641	0.023829 	0.004100
-73.200000	-0.014753	-2.440000	2.425247	0.023665 	0.004102
-73.100000	-0.014813	-2.436667	2.421854	0.023500 	0.004105
-73.000000	-0.014873	-2.433333	2.418460	0.023334 	0.004108
-72.900000	-0.014933	-2.430000	2.415067	0.023166 	0.004111
-72.800000	-0.014992	-2.426667	2.411675	0.022998 	0.004114
-72.700000	-0.015051	-2.423333	2.408282	0.022828 	0.004117
-72.600000	-0.015110	-2.420000	2.404890	0.022658 	0.004120
-72.500000	-0.015168	-2.416667	2.401499	0.022486 	0.004123
-72.400000	-0.015226	-2.413333	2.398107	0.022314 	0.004126
-72.300000	-0.015284	-2.410000	2.394716	0.022140 	0.004128
-72.200000	-0.015341	-2.406667	2.391326	0.021966 	0.004131
-72.100000	-0.015398	-2.403333	2.387935	0.021790 	0.004134
-72.000000	-0.015454	-2.400000	2.384546	0.021613 	0.004137
-71.900000	-0.015510	-2.396667	2.381157	0.021435 	0.004140
-71.800000	-0.015566	-2.393333	2.377767	0.021256 	0.004143
-71.700000	-0.015621	-2.390000	2.374379	0.021076 	0.004146
-71.600000	-0.015676	-2.386667	2.370991	0.020895 	0.004149
-71.500000	-0.015730	-2.383333	2.367603	0.020713 	0.004152
-71.400000	-0.015784	-2.380000	2.364216	0.020530 	0.004155
-71.300000	-0.015838	-2.376667	2.360829	0.020346 	0.004158
-71.200000	-0.015891	-2.373333	2.357442	0.020161 	0.004161
-71.100000	-0.015944	-2.370000	2.354056	0.019974 	0.004164
-71.000000	-0.015996	-2.366667	2.350671	0.019787 	0.004167
-70.900000	-0.016048	-2.363333	2.347285	0.019598 	0.004170
-70.800000	-0.016100	-2.360000	2.343900	0.019409 	0.004173
-70.700000	-0.016151	-2.356667	2.340516	0.019218 	0.004176
-70.600000	-0.016201	-2.353333	2.337132	0.019027 	0.004179
-70.500000	-0.016251	-2.350000	2.333749	0.018834 	0.004182
-70.400000	-0.016301	-2.346667	2.330366	0.018640 	0.004185
-70.300000	-0.016350	-2.343333	2.326983	0.018445 	0.004188
-70.200000	-0.016399	-2.340000	2.323601	0.018249 	0.004191
-70.100000	-0.016447	-2.336667	2.320220	0.018052 	0.004194
-70.000000	-0.016495	-2.333333	2.316838	0.017854 	0.004197
-69.900000	-0.016543	-2.330000	2.313457	0.017655 	0.004200
-69.800000	-0.016589	-2.326667	2.310078	0.017455 	0.004203
-69.700000	-0.016636	-2.323333	2.306697	0.017253 	0.004207
-69.600000	-0.016682	-2.320000	2.303318	0.017051 	0.004210
-69.500000	-0.016727	-2.316667	2.299940	0.016847 	0.004213
-69.400000	-0.016772	-2.313333	2.296561	0.016642 	0.004216
-69.300000	-0.016817	-2.310000	2.293183	0.016437 	0.004219
-69.200000	-0.016860	-2.306667	2.289807	0.016230 	0.004222
-69.100000	-0.016904	-2.303333	2.286429	0.016022 	0.004225
-69.000000	-0.016947	-2.300000	2.283053	0.015813 	0.004228
-68.900000	-0.016989	-2.296667	2.279678	0.015602 	0.004231
-68.800000	-0.017031	-2.293333	2.276302	0.015391 	0.004234
-68.700000	-0.017072	-2.290000	2.272928	0.015178 	0.004238
-68.600000	-0.017113	-2.286667	2.269554	0.014965 	0.004241
-68.500000	-0.017153	-2.283333	2.266180	0.014750 	0.004244
-68.400000	-0.017192	-2.280000	2.262808	0.014534 	0.004247
-68.300000	-0.017231	-2.276667	2.259436	0.014317 	0.004250
-68.200000	-0.017270	-2.273333	2.256063	0.014099 	0.004253
-68.100000	-0.017308	-2.270000	2.252692	0.013880 	0.004257
-68.000000	-0.017345	-2.266667	2.249322	0.013659 	0.004260
-67.900000	-0.017382	-2.263333	2.245951	0.013438 	0.004263
-67.800000	-0.017418	-2.260000	2.242582	0.013215 	0.004266
-67.700000	-0.017453	-2.256667	2.239214	0.012991 	0.004269
-67.600000	-0.017488	-2.253333	2.235845	0.012766 	0.004273
-67.500000	-0.017522	-2.250000	2.232478	0.012539 	0.004276
-67.400000	-0.017556	-2.246667	2.229111	0.012312 	0.004279
-67.300000	-0.017589	-2.243333	2.225744	0.012083 	0.004282
-67.200000	-0.017621	-2.240000	2.222379	0.011853 	0.004286
-67.100000	-0.017653	-2.236667	2.219014	0.011622 	0.004289
-67.000000	-0.017684	-2.233333	2.215649	0.011389 	0.004292
-66.900000	-0.017715	-2.230000	2.212285	0.011156 	0.004295
-66.800000	-0.017744	-2.226667	2.208923	0.010921 	0.004299
-66.700000	-0.017773	-2.223333	2.205560	0.010685 	0.004302
-66.600000	-0.017802	-2.220000	2.202198	0.010448 	0.004305
-66.500000	-0.017829	-2.216667	2.198838	0.010209 	0.004308
-66.400000	-0.017856	-2.213333	2.195477	0.009969 	0.004312
-66.300000	-0.017883	-2.210000	2.192117	0.009728 	0.004315
-66.200000	-0.017908	-2.206667	2.188759	0.009486 	0.004318
-66.100000	-0.017933	-2.203333	2.185400	0.009243 	0.004322
-66.000000	-0.017957	-2.200000	2.182043	0.008998 	0.004325
-65.900000	-0.017981	-2.196667	2.178686	0.008752 	0.004328
-65.800000	-0.018003	-2.193333	2.175330	0.008505 	0.004332
-65.700000	-0.018025	-2.190000	2.171975	0.008256 	0.004335
-65.600000	-0.018047	-2.186667	2.168620	0.008006 	0.004338
-65.500000	-0.018067	-2.183333	2.165266	0.007755 	0.004342
-65.400000	-0.018087	-2.180000	2.161913	0.007503 	0.004345
-65.300000	-0.018106	-2.176667	2.158561	0.007249 	0.004348
-65.200000	-0.018124	-2.173333	2.155209	0.006994 	0.004352
-65.100000	-0.018142	-2.170000	2.151858	0.006738 	0.004355
-65.000000	-0.018159	-2.166667	2.148508	0.006480 	0.004359
-64.900000	-0.018174	-2.163333	2.145159	0.006222 	0.004362
-64.800000	-0.018190	-2.160000	2.141810	0.005962 	0.004365
-64.700000	-0.018204	-2.156667	2.138463	0.005700 	0.004369
-64.600000	-0.018218	-2.153333	2.135115	0.005438 	0.004372
-64.500000	-0.018231	-2.150000	2.131769	0.005174 	0.004376
-64.400000	-0.018243	-2.146667	2.128424	0.004909 	0.004379
-64.300000	-0.018254	-2.143333	2.125079	0.004643 	0.004383
-64.200000	-0.018265	-2.140000	2.121735	0.004375 	0.004386
-64.100000	-0.018274	-2.136667	2.118393	0.004107 	0.004389
-64.000000	-0.018283	-2.133333	2.115050	0.003837 	0.004393
-63.900000	-0.018292	-2.130000	2.111708	0.003565 	0.004396
-63.800000	-0.018299	-2.126667	2.108368	0.003293 	0.004400
-63.700000	-0.018306	-2.123333	2.105027	0.003020 	0.004403
-63.600000	-0.018311	-2.120000	2.101689	0.002745 	0.004407
-63.500000	-0.018316	-2.116667	2.098351	0.002469 	0.004410
-63.400000	-0.018321	-2.113333	2.095012	0.002192 	0.004414
-63.300000	-0.018324	-2.110000	2.091676	0.001914 	0.004417
-63.200000	-0.018327	-2.106667	2.088340	0.001634 	0.004421
-63.100000	-0.018329	-2.103333	2.085004	0.001354 	0.004424
-63.000000	-0.018330	-2.100000	2.081670	0.001072 	0.004428
-62.900000	-0.018331	-2.096667	2.078336	0.000790 	0.004432
-62.800000	-0.018330	-2.093333	2.075003	0.000506 	0.004435
-62.700000	-0.018329	-2.090000	2.071671	0.000221 	0.004439
-62.600000	-0.018327	-2.086667	2.068340	-0.000065 	0.004442
-62.500000	-0.018325	-2.083333	2.065008	-0.000351 	0.004446
-62.400000	-0.018321	-2.080000	2.061679	-0.000639 	0.004449
-62.300000	-0.018317	-2.076667	2.058350	-0.000928 	0.004453
-62.200000	-0.018312	-2.073333	2.055021	-0.001217 	0.004457
-62.100000	-0.018307	-2.070000	2.051693	-0.001508 	0.004460
-62.000000	-0.018301	-2.066667	2.048366	-0.001800 	0.004464
-61.900000	-0.018293	-2.063333	2.045040	-0.002092 	0.004468
-61.800000	-0.018286	-2.060000	2.041714	-0.002385 	0.004471
-61.700000	-0.018277	-2.056667	2.038390	-0.002679 	0.004475
-61.600000	-0.018268	-2.053333	2.035065	-0.002974 	0.004478
-61.500000	-0.018258	-2.050000	2.031742	-0.003270 	0.004482
-61.400000	-0.018248	-2.046667	2.028419	-0.003567 	0.004486
-61.300000	-0.018236	-2.043333	2.025097	-0.003864 	0.004489
-61.200000	-0.018224	-2.040000	2.021776	-0.004162 	0.004493
-61.100000	-0.018212	-2.036667	2.018455	-0.004461 	0.004497
-61.000000	-0.018198	-2.033333	2.015135	-0.004760 	0.004501
-60.900000	-0.018184	-2.030000	2.011816	-0.005060 	0.004504
-60.800000	-0.018170	-2.026667	2.008497	-0.005361 	0.004508
-60.700000	-0.018154	-2.023333	2.005179	-0.005663 	0.004512
-60.600000	-0.018138	-2.020000	2.001862	-0.005965 	0.004515
-60.500000	-0.018121	-2.016667	1.998546	-0.006268 	0.004519
-60.400000	-0.018104	-2.013333	1.995229	-0.006571 	0.004523
-60.300000	-0.018086	-2.010000	1.991914	-0.006875 	0.004527
-60.200000	-0.018067	-2.006667	1.988600	-0.007179 	0.004530
-60.100000	-0.018048	-2.003333	1.985285	-0.007484 	0.004534
-60.000000	-0.018028	-2.000000	1.981972	-0.007790 	0.004538
-59.900000	-0.018007	-1.996667	1.978660	-0.008096 	0.004542
-59.800000	-0.017986	-1.993333	1.975347	-0.008402 	0.004546
-59.700000	-0.017964	-1.990000	1.972036	-0.008709 	0.004549
-59.600000	-0.017941	-1.986667	1.968726	-0.009017 	0.004553
-59.500000	-0.017918	-1.983333	1.965415	-0.009325 	0.004557
-59.400000	-0.017894	-1.980000	1.962106	-0.009633 	0.004561
-59.300000	-0.017869	-1.976667	1.958798	-0.009942 	0.004565
-59.200000	-0.017844	-1.973333	1.955489	-0.010251 	0.004569
-59.100000	-0.017818	-1.970000	1.952182	-0.010561 	0.004573
-59.000000	-0.017792	-1.966667	1.948875	-0.010871 	0.004576
-58.900000	-0.017764	-1.963333	1.945569	-0.011181 	0.004580
-58.800000	-0.017737	-1.960000	1.942263	-0.011492 	0.004584
-58.700000	-0.017708	-1.956667	1.938959	-0.011803 	0.004588
-58.600000	-0.017679	-1.953333	1.935654	-0.012114 	0.004592
-58.500000	-0.017649	-1.950000	1.932351	-0.012426 	0.004596
-58.400000	-0.017619	-1.946667	1.929048	-0.012738 	0.004600
-58.300000	-0.017588	-1.943333	1.925745	-0.013050 	0.004604
-58.200000	-0.017556	-1.940000	1.922444	-0.013363 	0.004608
-58.100000	-0.017524	-1.936667	1.919143	-0.013676 	0.004612
-58.000000	-0.017490	-1.933333	1.915843	-0.013989 	0.004616
-57.900000	-0.017457	-1.930000	1.912543	-0.014302 	0.004620
-57.800000	-0.017422	-1.926667	1.909245	-0.014616 	0.004624
-57.700000	-0.017387	-1.923333	1.905946	-0.014930 	0.004628
-57.600000	-0.017352	-1.920000	1.902648	-0.015244 	0.004632
-57.500000	-0.017316	-1.916667	1.899351	-0.015558 	0.004636
-57.400000	-0.017279	-1.913333	1.896054	-0.015873 	0.004640
-57.300000	-0.017241	-1.910000	1.892759	-0.016188 	0.004644
-57.200000	-0.017203	-1.906667	1.889464	-0.016503 	0.004648
-57.100000	-0.017164	-1.903333	1.886169	-0.016818 	0.004652
-57.000000	-0.017124	-1.900000	1.882876	-0.017133 	0.004656
-56.900000	-0.017084	-1.896667	1.879583	-0.017449 	0.004660
-56.800000	-0.017043	-1.893333	1.876290	-0.017764 	0.004664
-56.700000	-0.017001	-1.890000	1.872999	-0.018080 	0.004668
-56.600000	-0.016959	-1.886667	1.869708	-0.018396 	0.004672
-56.500000	-0.016916	-1.883333	1.866417	-0.018712 	0.004676
-56.400000	-0.016873	-1.880000	1.863127	-0.019028 	0.004681
-56.300000	-0.016829	-1.876667	1.859838	-0.019344 	0.004685
-56.200000	-0.016784	-1.873333	1.856549	-0.019661 	0.004689
-56.100000	-0.016738	-1.870000	1.853262	-0.019977 	0.004693
-56.000000	-0.016692	-1.866667	1.849975	-0.020293 	0.004697
-55.900000	-0.016645	-1.863333	1.846688	-0.020610 	0.004701
-55.800000	-0.016598	-1.860000	1.843402	-0.020926 	0.004706
-55.700000	-0.016549	-1.856667	1.840118	-0.021243 	0.004710
-55.600000	-0.016501	-1.853333	1.836832	-0.021559 	0.004714
-55.500000	-0.016451	-1.850000	1.833549	-0.021875 	0.004718
-55.400000	-0.016401	-1.846667	1.830266	-0.022192 	0.004722
-55.300000	-0.016350	-1.843333	1.826983	-0.022508 	0.004727
-55.200000	-0.016298	-1.840000	1.823702	-0.022825 	0.004731
-55.100000	-0.016246	-1.836667	1.820421	-0.023141 	0.004735
-55.000000	-0.016193	-1.833333	1.817140	-0.023457 	0.004739
-54.900000	-0.016140	-1.830000	1.813860	-0.023773 	0.004744
-54.800000	-0.016086	-1.826667	1.810581	-0.024089 	0.004748
-54.700000	-0.016031	-1.823333	1.807302	-0.024405 	0.004752
-54.600000	-0.015975	-1.820000	1.804025	-0.024721 	0.004757
-54.500000	-0.015919	-1.816667	1.800748	-0.025037 	0.004761
-54.400000	-0.015862	-1.813333	1.797471	-0.025353 	0.004765
-54.300000	-0.015805	-1.810000	1.794195	-0.025668 	0.004770
-54.200000	-0.015746	-1.806667	1.790921	-0.025983 	0.004774
-54.100000	-0.015688	-1.803333	1.787645	-0.026298 	0.004778
-54.000000	-0.015628	-1.800000	1.784372	-0.026613 	0.004783
-53.900000	-0.015568	-1.796667	1.781099	-0.026928 	0.004787
-53.800000	-0.015507	-1.793333	1.777826	-0.027243 	0.004792
-53.700000	-0.015445	-1.790000	1.774555	-0.027557 	0.004796
-53.600000	-0.015383	-1.786667	1.771284	-0.027871 	0.004800
-53.500000	-0.015320	-1.783333	1.768013	-0.028185 	0.004805
-53.400000	-0.015257	-1.780000	1.764743	-0.028498 	0.004809
-53.300000	-0.015192	-1.776667	1.761475	-0.028812 	0.004814
-53.200000	-0.015128	-1.773333	1.758205	-0.029125 	0.004818
-53.100000	-0.015062	-1.770000	1.754938	-0.029437 	0.004823
-53.000000	-0.014996	-1.766667	1.751671	-0.029750 	0.004827
-52.900000	-0.014929	-1.763333	1.748404	-0.030062 	0.004832
-52.800000	-0.014861	-1.760000	1.745139	-0.030374 	0.004836
-52.700000	-0.014793	-1.756667	1.741874	-0.030685 	0.004841
-52.600000	-0.014724	-1.753333	1.738609	-0.030996 	0.004845
-52.500000	-0.014654	-1.750000	1.735346	-0.031307 	0.004850
-52.400000	-0.014584	-1.746667	1.732083	-0.031617 	0.004854
-52.300000	-0.014513	-1.743333	1.728820	-0.031927 	0.004859
-52.200000	-0.014441	-1.740000	1.725559	-0.032237 	0.004864
-52.100000	-0.014369	-1.736667	1.722298	-0.032546 	0.004868
-52.000000	-0.014296	-1.733333	1.719037	-0.032855 	0.004873
-51.900000	-0.014222	-1.730000	1.715778	-0.033163 	0.004877
-51.800000	-0.014148	-1.726667	1.712519	-0.033471 	0.004882
-51.700000	-0.014073	-1.723333	1.709260	-0.033778 	0.004887
-51.600000	-0.013997	-1.720000	1.706003	-0.034085 	0.004891
-51.500000	-0.013921	-1.716667	1.702746	-0.034391 	0.004896
-51.400000	-0.013844	-1.713333	1.699489	-0.034697 	0.004901
-51.300000	-0.013766	-1.710000	1.696234	-0.035003 	0.004905
-51.200000	-0.013688	-1.706667	1.692979	-0.035307 	0.004910
-51.100000	-0.013609	-1.703333	1.689724	-0.035612 	0.004915
-51.000000	-0.013529	-1.700000	1.686471	-0.035916 	0.004920
-50.900000	-0.013449	-1.696667	1.683218	-0.036219 	0.004924
-50.800000	-0.013368	-1.693333	1.679965	-0.036521 	0.004929
-50.700000	-0.013286	-1.690000	1.676714	-0.036823 	0.004934
-50.600000	-0.013204	-1.686667	1.673463	-0.037125 	0.004939
-50.500000	-0.013120	-1.683333	1.670213	-0.037425 	0.004943
-50.400000	-0.013037	-1.680000	1.666963	-0.037725 	0.004948
-50.300000	-0.012952	-1.676667	1.663715	-0.038025 	0.004953
-50.200000	-0.012867	-1.673333	1.660466	-0.038324 	0.004958
-50.100000	-0.012782	-1.670000	1.657218	-0.038622 	0.004963
-50.000000	-0.012695	-1.666667	1.653972	-0.038919 	0.004968
-49.900000	-0.012608	-1.663333	1.650725	-0.039216 	0.004973
-49.800000	-0.012520	-1.660000	1.647480	-0.039512 	0.004977
-49.700000	-0.012432	-1.656667	1.644235	-0.039807 	0.004982
-49.600000	-0.012343	-1.653333	1.640990	-0.040101 	0.004987
-49.500000	-0.012253	-1.650000	1.637747	-0.040395 	0.004992