VARIABLES = X,Ksi,B,H,U,tau 
ZONE T="Time 55.000000", I=1100, DATAPACKING=POINT
-100.000000	0.002231	-3.333333	3.335564	-0.045352 	0.003498
-99.900000	-0.000697	-3.330000	3.329303	-0.040408 	0.003501
-99.800000	0.000533	-3.326667	3.327200	-0.042600 	0.003502
-99.700000	0.000022	-3.323333	3.323355	-0.041799 	0.003505
-99.600000	0.000240	-3.320000	3.320240	-0.042252 	0.003506
-99.500000	0.000153	-3.316667	3.316820	-0.042178 	0.003508
-99.400000	0.000194	-3.313333	3.313527	-0.042324 	0.003510
-99.300000	0.000182	-3.310000	3.310182	-0.042377 	0.003511
-99.200000	0.000192	-3.306667	3.306859	-0.042468 	0.003513
-99.100000	0.000192	-3.303333	3.303525	-0.042542 	0.003515
-99.000000	0.000197	-3.300000	3.300197	-0.042623 	0.003517
-98.900000	0.000200	-3.296667	3.296867	-0.042699 	0.003519
-98.800000	0.000204	-3.293333	3.293537	-0.042777 	0.003520
-98.700000	0.000207	-3.290000	3.290207	-0.042853 	0.003522
-98.600000	0.000211	-3.286667	3.286878	-0.042928 	0.003524
-98.500000	0.000215	-3.283333	3.283548	-0.043003 	0.003526
-98.400000	0.000218	-3.280000	3.280218	-0.043078 	0.003527
-98.300000	0.000222	-3.276667	3.276889	-0.043151 	0.003529
-98.200000	0.000226	-3.273333	3.273559	-0.043224 	0.003531
-98.100000	0.000230	-3.270000	3.270230	-0.043296 	0.003533
-98.000000	0.000234	-3.266667	3.266901	-0.043367 	0.003535
-97.900000	0.000239	-3.263333	3.263572	-0.043438 	0.003536
-97.800000	0.000243	-3.260000	3.260243	-0.043508 	0.003538
-97.700000	0.000247	-3.256667	3.256914	-0.043577 	0.003540
-97.600000	0.000251	-3.253333	3.253584	-0.043646 	0.003542
-97.500000	0.000256	-3.250000	3.250256	-0.043714 	0.003544
-97.400000	0.000260	-3.246667	3.246927	-0.043781 	0.003546
-97.300000	0.000265	-3.243333	3.243598	-0.043847 	0.003547
-97.200000	0.000270	-3.240000	3.240270	-0.043913 	0.003549
-97.100000	0.000274	-3.236667	3.236941	-0.043978 	0.003551
-97.000000	0.000279	-3.233333	3.233612	-0.044042 	0.003553
-96.900000	0.000284	-3.230000	3.230284	-0.044105 	0.003555
-96.800000	0.000289	-3.226667	3.226956	-0.044168 	0.003556
-96.700000	0.000294	-3.223333	3.223627	-0.044230 	0.003558
-96.600000	0.000299	-3.220000	3.220299	-0.044291 	0.003560
-96.500000	0.000304	-3.216667	3.216971	-0.044352 	0.003562
-96.400000	0.000309	-3.213333	3.213642	-0.044411 	0.003564
-96.300000	0.000314	-3.210000	3.210314	-0.044470 	0.003566
-96.200000	0.000319	-3.206667	3.206986	-0.044528 	0.003568
-96.100000	0.000325	-3.203333	3.203658	-0.044586 	0.003569
-96.000000	0.000330	-3.200000	3.200330	-0.044642 	0.003571
-95.900000	0.000336	-3.196667	3.197003	-0.044698 	0.003573
-95.800000	0.000341	-3.193333	3.193674	-0.044753 	0.003575
-95.700000	0.000347	-3.190000	3.190347	-0.044807 	0.003577
-95.600000	0.000353	-3.186667	3.187020	-0.044861 	0.003579
-95.500000	0.000358	-3.183333	3.183691	-0.044914 	0.003581
-95.400000	0.000364	-3.180000	3.180364	-0.044965 	0.003582
-95.300000	0.000370	-3.176667	3.177037	-0.045017 	0.003584
-95.200000	0.000376	-3.173333	3.173709	-0.045067 	0.003586
-95.100000	0.000382	-3.170000	3.170382	-0.045116 	0.003588
-95.000000	0.000388	-3.166667	3.167055	-0.045165 	0.003590
-94.900000	0.000394	-3.163333	3.163727	-0.045213 	0.003592
-94.800000	0.000401	-3.160000	3.160401	-0.045260 	0.003594
-94.700000	0.000407	-3.156667	3.157074	-0.045307 	0.003596
-94.600000	0.000413	-3.153333	3.153746	-0.045352 	0.003598
-94.500000	0.000420	-3.150000	3.150420	-0.045397 	0.003599
-94.400000	0.000426	-3.146667	3.147093	-0.045441 	0.003601
-94.300000	0.000433	-3.143333	3.143766	-0.045484 	0.003603
-94.200000	0.000439	-3.140000	3.140439	-0.045526 	0.003605
-94.100000	0.000446	-3.136667	3.137113	-0.045567 	0.003607
-94.000000	0.000453	-3.133333	3.133786	-0.045608 	0.003609
-93.900000	0.000459	-3.130000	3.130459	-0.045647 	0.003611
-93.800000	0.000466	-3.126667	3.127133	-0.045686 	0.003613
-93.700000	0.000473	-3.123333	3.123806	-0.045724 	0.003615
-93.600000	0.000480	-3.120000	3.120480	-0.045761 	0.003617
-93.500000	0.000487	-3.116667	3.117154	-0.045798 	0.003619
-93.400000	0.000494	-3.113333	3.113827	-0.045833 	0.003621
-93.300000	0.000502	-3.110000	3.110502	-0.045868 	0.003622
-93.200000	0.000509	-3.106667	3.107176	-0.045902 	0.003624
-93.100000	0.000516	-3.103333	3.103849	-0.045935 	0.003626
-93.000000	0.000524	-3.100000	3.100524	-0.045967 	0.003628
-92.900000	0.000531	-3.096667	3.097198	-0.045998 	0.003630
-92.800000	0.000539	-3.093333	3.093872	-0.046028 	0.003632
-92.700000	0.000546	-3.090000	3.090546	-0.046057 	0.003634
-92.600000	0.000554	-3.086667	3.087221	-0.046086 	0.003636
-92.500000	0.000561	-3.083333	3.083894	-0.046113 	0.003638
-92.400000	0.000569	-3.080000	3.080569	-0.046140 	0.003640
-92.300000	0.000577	-3.076667	3.077244	-0.046166 	0.003642
-92.200000	0.000585	-3.073333	3.073918	-0.046191 	0.003644
-92.100000	0.000593	-3.070000	3.070593	-0.046215 	0.003646
-92.000000	0.000601	-3.066667	3.067268	-0.046238 	0.003648
-91.900000	0.000609	-3.063333	3.063942	-0.046260 	0.003650
-91.800000	0.000617	-3.060000	3.060617	-0.046282 	0.003652
-91.700000	0.000625	-3.056667	3.057292	-0.046302 	0.003654
-91.600000	0.000633	-3.053333	3.053966	-0.046322 	0.003656
-91.500000	0.000642	-3.050000	3.050642	-0.046340 	0.003658
-91.400000	0.000650	-3.046667	3.047317	-0.046358 	0.003660
-91.300000	0.000658	-3.043333	3.043991	-0.046375 	0.003662
-91.200000	0.000667	-3.040000	3.040667	-0.046391 	0.003664
-91.100000	0.000675	-3.036667	3.037342	-0.046406 	0.003666
-91.000000	0.000684	-3.033333	3.034017	-0.046420 	0.003668
-90.900000	0.000693	-3.030000	3.030693	-0.046433 	0.003670
-90.800000	0.000701	-3.026667	3.027368	-0.046445 	0.003672
-90.700000	0.000710	-3.023333	3.024043	-0.046456 	0.003674
-90.600000	0.000719	-3.020000	3.020719	-0.046466 	0.003676
-90.500000	0.000728	-3.016667	3.017395	-0.046475 	0.003678
-90.400000	0.000737	-3.013333	3.014070	-0.046484 	0.003680
-90.300000	0.000746	-3.010000	3.010746	-0.046491 	0.003682
-90.200000	0.000755	-3.006667	3.007422	-0.046497 	0.003684
-90.100000	0.000764	-3.003333	3.004097	-0.046503 	0.003686
-90.000000	0.000773	-3.000000	3.000773	-0.046507 	0.003688
-89.900000	0.000782	-2.996667	2.997449	-0.046511 	0.003690
-89.800000	0.000791	-2.993333	2.994124	-0.046513 	0.003692
-89.700000	0.000801	-2.990000	2.990801	-0.046515 	0.003694
-89.600000	0.000810	-2.986667	2.987477	-0.046515 	0.003696
-89.500000	0.000819	-2.983333	2.984152	-0.046515 	0.003698
-89.400000	0.000829	-2.980000	2.980829	-0.046514 	0.003700
-89.300000	0.000838	-2.976667	2.977505	-0.046511 	0.003702
-89.200000	0.000848	-2.973333	2.974181	-0.046508 	0.003705
-89.100000	0.000857	-2.970000	2.970857	-0.046503 	0.003707
-89.000000	0.000867	-2.966667	2.967534	-0.046498 	0.003709
-88.900000	0.000877	-2.963333	2.964210	-0.046492 	0.003711
-88.800000	0.000887	-2.960000	2.960887	-0.046484 	0.003713
-88.700000	0.000896	-2.956667	2.957563	-0.046476 	0.003715
-88.600000	0.000906	-2.953333	2.954239	-0.046466 	0.003717
-88.500000	0.000916	-2.950000	2.950916	-0.046456 	0.003719
-88.400000	0.000926	-2.946667	2.947593	-0.046444 	0.003721
-88.300000	0.000936	-2.943333	2.944269	-0.046432 	0.003723
-88.200000	0.000946	-2.940000	2.940946	-0.046418 	0.003725
-88.100000	0.000956	-2.936667	2.937623	-0.046404 	0.003728
-88.000000	0.000966	-2.933333	2.934299	-0.046388 	0.003730
-87.900000	0.000976	-2.930000	2.930976	-0.046372 	0.003732
-87.800000	0.000986	-2.926667	2.927653	-0.046354 	0.003734
-87.700000	0.000997	-2.923333	2.924330	-0.046335 	0.003736
-87.600000	0.001007	-2.920000	2.921007	-0.046315 	0.003738
-87.500000	0.001017	-2.916667	2.917684	-0.046295 	0.003740
-87.400000	0.001028	-2.913333	2.914361	-0.046273 	0.003742
-87.300000	0.001038	-2.910000	2.911038	-0.046250 	0.003744
-87.200000	0.001048	-2.906667	2.907715	-0.046226 	0.003747
-87.100000	0.001059	-2.903333	2.904392	-0.046201 	0.003749
-87.000000	0.001069	-2.900000	2.901069	-0.046175 	0.003751
-86.900000	0.001080	-2.896667	2.897747	-0.046147 	0.003753
-86.800000	0.001090	-2.893333	2.894423	-0.046119 	0.003755
-86.700000	0.001101	-2.890000	2.891101	-0.046090 	0.003757
-86.600000	0.001112	-2.886667	2.887779	-0.046059 	0.003760
-86.500000	0.001122	-2.883333	2.884455	-0.046028 	0.003762
-86.400000	0.001133	-2.880000	2.881133	-0.045995 	0.003764
-86.300000	0.001144	-2.876667	2.877811	-0.045961 	0.003766
-86.200000	0.001154	-2.873333	2.874487	-0.045927 	0.003768
-86.100000	0.001165	-2.870000	2.871165	-0.045891 	0.003770
-86.000000	0.001176	-2.866667	2.867843	-0.045854 	0.003773
-85.900000	0.001187	-2.863333	2.864520	-0.045816 	0.003775
-85.800000	0.001198	-2.860000	2.861198	-0.045776 	0.003777
-85.700000	0.001209	-2.856667	2.857876	-0.045736 	0.003779
-85.600000	0.001220	-2.853333	2.854553	-0.045694 	0.003781
-85.500000	0.001231	-2.850000	2.851231	-0.045652 	0.003784
-85.400000	0.001242	-2.846667	2.847909	-0.045608 	0.003786
-85.300000	0.001252	-2.843333	2.844585	-0.045563 	0.003788
-85.200000	0.001264	-2.840000	2.841264	-0.045517 	0.003790
-85.100000	0.001275	-2.836667	2.837942	-0.045470 	0.003792
-85.000000	0.001286	-2.833333	2.834619	-0.045422 	0.003795
-84.900000	0.001297	-2.830000	2.831297	-0.045372 	0.003797
-84.800000	0.001308	-2.826667	2.827975	-0.045322 	0.003799
-84.700000	0.001319	-2.823333	2.824652	-0.045270 	0.003801
-84.600000	0.001330	-2.820000	2.821330	-0.045217 	0.003804
-84.500000	0.001341	-2.816667	2.818008	-0.045163 	0.003806
-84.400000	0.001352	-2.813333	2.814685	-0.045108 	0.003808
-84.300000	0.001363	-2.810000	2.811363	-0.045051 	0.003810
-84.200000	0.001375	-2.806667	2.808042	-0.044994 	0.003813
-84.100000	0.001386	-2.803333	2.804719	-0.044935 	0.003815
-84.000000	0.001397	-2.800000	2.801397	-0.044875 	0.003817
-83.900000	0.001408	-2.796667	2.798075	-0.044814 	0.003819
-83.800000	0.001419	-2.793333	2.794752	-0.044752 	0.003822
-83.700000	0.001431	-2.790000	2.791431	-0.044688 	0.003824
-83.600000	0.001442	-2.786667	2.788109	-0.044624 	0.003826
-83.500000	0.001453	-2.783333	2.784786	-0.044558 	0.003828
-83.400000	0.001464	-2.780000	2.781464	-0.044491 	0.003831
-83.300000	0.001475	-2.776667	2.778142	-0.044422 	0.003833
-83.200000	0.001487	-2.773333	2.774820	-0.044353 	0.003835
-83.100000	0.001498	-2.770000	2.771498	-0.044282 	0.003838
-83.000000	0.001509	-2.766667	2.768176	-0.044210 	0.003840
-82.900000	0.001520	-2.763333	2.764853	-0.044137 	0.003842
-82.800000	0.001532	-2.760000	2.761532	-0.044063 	0.003845
-82.700000	0.001543	-2.756667	2.758210	-0.043987 	0.003847
-82.600000	0.001554	-2.753333	2.754887	-0.043910 	0.003849
-82.500000	0.001565	-2.750000	2.751565	-0.043832 	0.003851
-82.400000	0.001576	-2.746667	2.748243	-0.043753 	0.003854
-82.300000	0.001588	-2.743333	2.744921	-0.043673 	0.003856
-82.200000	0.001599	-2.740000	2.741599	-0.043591 	0.003858
-82.100000	0.001610	-2.736667	2.738277	-0.043508 	0.003861
-82.000000	0.001621	-2.733333	2.734954	-0.043423 	0.003863
-81.900000	0.001632	-2.730000	2.731632	-0.043338 	0.003866
-81.800000	0.001643	-2.726667	2.728310	-0.043251 	0.003868
-81.700000	0.001655	-2.723333	2.724988	-0.043163 	0.003870
-81.600000	0.001666	-2.720000	2.721666	-0.043074 	0.003873
-81.500000	0.001677	-2.716667	2.718344	-0.042983 	0.003875
-81.400000	0.001688	-2.713333	2.715021	-0.042891 	0.003877
-81.300000	0.001699	-2.710000	2.711699	-0.042798 	0.003880
-81.200000	0.001710	-2.706667	2.708377	-0.042703 	0.003882
-81.100000	0.001721	-2.703333	2.705054	-0.042608 	0.003884
-81.000000	0.001732	-2.700000	2.701732	-0.042511 	0.003887
-80.900000	0.001743	-2.696667	2.698410	-0.042412 	0.003889
-80.800000	0.001754	-2.693333	2.695087	-0.042313 	0.003892
-80.700000	0.001764	-2.690000	2.691764	-0.042212 	0.003894
-80.600000	0.001775	-2.686667	2.688442	-0.042110 	0.003896
-80.500000	0.001786	-2.683333	2.685119	-0.042006 	0.003899
-80.400000	0.001797	-2.680000	2.681797	-0.041901 	0.003901
-80.300000	0.001808	-2.676667	2.678475	-0.041795 	0.003904
-80.200000	0.001818	-2.673333	2.675151	-0.041688 	0.003906
-80.100000	0.001829	-2.670000	2.671829	-0.041579 	0.003909
-80.000000	0.001840	-2.666667	2.668507	-0.041469 	0.003911
-79.900000	0.001850	-2.663333	2.665183	-0.041357 	0.003913
-79.800000	0.001861	-2.660000	2.661861	-0.041244 	0.003916
-79.700000	0.001872	-2.656667	2.658539	-0.041130 	0.003918
-79.600000	0.001882	-2.653333	2.655215	-0.041015 	0.003921
-79.500000	0.001893	-2.650000	2.651893	-0.040898 	0.003923
-79.400000	0.001903	-2.646667	2.648570	-0.040780 	0.003926
-79.300000	0.001913	-2.643333	2.645246	-0.040660 	0.003928
-79.200000	0.001924	-2.640000	2.641924	-0.040539 	0.003931
-79.100000	0.001934	-2.636667	2.638601	-0.040417 	0.003933
-79.000000	0.001944	-2.633333	2.635277	-0.040294 	0.003936
-78.900000	0.001955	-2.630000	2.631955	-0.040169 	0.003938
-78.800000	0.001965	-2.626667	2.628632	-0.040042 	0.003941
-78.700000	0.001975	-2.623333	2.625308	-0.039915 	0.003943
-78.600000	0.001985	-2.620000	2.621985	-0.039786 	0.003945
-78.500000	0.001995	-2.616667	2.618662	-0.039655 	0.003948
-78.400000	0.002005	-2.613333	2.615338	-0.039524 	0.003951
-78.300000	0.002015	-2.610000	2.612015	-0.039391 	0.003953
-78.200000	0.002025	-2.606667	2.608692	-0.039256 	0.003956
-78.100000	0.002034	-2.603333	2.605367	-0.039120 	0.003958
-78.000000	0.002044	-2.600000	2.602044	-0.038983 	0.003961
-77.900000	0.002054	-2.596667	2.598721	-0.038844 	0.003963
-77.800000	0.002063	-2.593333	2.595396	-0.038704 	0.003966
-77.700000	0.002073	-2.590000	2.592073	-0.038563 	0.003968
-77.600000	0.002082	-2.586667	2.588749	-0.038420 	0.003971
-77.500000	0.002092	-2.583333	2.585425	-0.038276 	0.003973
-77.400000	0.002101	-2.580000	2.582101	-0.038130 	0.003976
-77.300000	0.002111	-2.576667	2.578778	-0.037983 	0.003978
-77.200000	0.002120	-2.573333	2.575453	-0.037835 	0.003981
-77.100000	0.002129	-2.570000	2.572129	-0.037685 	0.003984
-77.000000	0.002138	-2.566667	2.568805	-0.037534 	0.003986
-76.900000	0.002147	-2.563333	2.565480	-0.037381 	0.003989
-76.800000	0.002156	-2.560000	2.562156	-0.037227 	0.003991
-76.700000	0.002165	-2.556667	2.558832	-0.037072 	0.003994
-76.600000	0.002174	-2.553333	2.555507	-0.036915 	0.003996
-76.500000	0.002183	-2.550000	2.552183	-0.036756 	0.003999
-76.400000	0.002192	-2.546667	2.548859	-0.036597 	0.004002
-76.300000	0.002200	-2.543333	2.545533	-0.036436 	0.004004
-76.200000	0.002209	-2.540000	2.542209	-0.036273 	0.004007
-76.100000	0.002218	-2.536667	2.538885	-0.036109 	0.004010
-76.000000	0.002226	-2.533333	2.535559	-0.035944 	0.004012
-75.900000	0.002235	-2.530000	2.532235	-0.035777 	0.004015
-75.800000	0.002243	-2.526667	2.528910	-0.035609 	0.004017
-75.700000	0.002251	-2.523333	2.525584	-0.035439 	0.004020
-75.600000	0.002259	-2.520000	2.522259	-0.035268 	0.004023
-75.500000	0.002267	-2.516667	2.518934	-0.035096 	0.004025
-75.400000	0.002276	-2.513333	2.515609	-0.034922 	0.004028
-75.300000	0.002284	-2.510000	2.512284	-0.034746 	0.004031
-75.200000	0.002291	-2.506667	2.508958	-0.034569 	0.004033
-75.100000	0.002299	-2.503333	2.505632	-0.034391 	0.004036
-75.000000	0.002307	-2.500000	2.502307	-0.034212 	0.004039
-74.900000	0.002315	-2.496667	2.498982	-0.034030 	0.004041
-74.800000	0.002322	-2.493333	2.495655	-0.033848 	0.004044
-74.700000	0.002330	-2.490000	2.492330	-0.033664 	0.004047
-74.600000	0.002337	-2.486667	2.489004	-0.033479 	0.004050
-74.500000	0.002345	-2.483333	2.485678	-0.033292 	0.004052
-74.400000	0.002352	-2.480000	2.482352	-0.033104 	0.004055
-74.300000	0.002359	-2.476667	2.479026	-0.032914 	0.004058
-74.200000	0.002367	-2.473333	2.475700	-0.032723 	0.004060
-74.100000	0.002374	-2.470000	2.472374	-0.032530 	0.004063
-74.000000	0.002381	-2.466667	2.469048	-0.032336 	0.004066
-73.900000	0.002388	-2.463333	2.465721	-0.032141 	0.004069
-73.800000	0.002394	-2.460000	2.462394	-0.031944 	0.004071
-73.700000	0.002401	-2.456667	2.459068	-0.031746 	0.004074
-73.600000	0.002408	-2.453333	2.455741	-0.031546 	0.004077
-73.500000	0.002415	-2.450000	2.452415	-0.031345 	0.004080
-73.400000	0.002421	-2.446667	2.449088	-0.031142 	0.004082
-73.300000	0.002428	-2.443333	2.445761	-0.030938 	0.004085
-73.200000	0.002434	-2.440000	2.442434	-0.030733 	0.004088
-73.100000	0.002440	-2.436667	2.439107	-0.030526 	0.004091
-73.000000	0.002447	-2.433333	2.435780	-0.030317 	0.004094
-72.900000	0.002453	-2.430000	2.432453	-0.030108 	0.004096
-72.800000	0.002459	-2.426667	2.429126	-0.029896 	0.004099
-72.700000	0.002465	-2.423333	2.425798	-0.029684 	0.004102
-72.600000	0.002471	-2.420000	2.422471	-0.029470 	0.004105
-72.500000	0.002477	-2.416667	2.419144	-0.029254 	0.004108
-72.400000	0.002482	-2.413333	2.415815	-0.029037 	0.004110
-72.300000	0.002488	-2.410000	2.412488	-0.028819 	0.004113
-72.200000	0.002494	-2.406667	2.409161	-0.028599 	0.004116
-72.100000	0.002499	-2.403333	2.405832	-0.028378 	0.004119
-72.000000	0.002505	-2.400000	2.402505	-0.028155 	0.004122
-71.900000	0.002510	-2.396667	2.399177	-0.027931 	0.004125
-71.800000	0.002516	-2.393333	2.395849	-0.027705 	0.004128
-71.700000	0.002521	-2.390000	2.392521	-0.027478 	0.004130
-71.600000	0.002526	-2.386667	2.389193	-0.027250 	0.004133
-71.500000	0.002531	-2.383333	2.385864	-0.027020 	0.004136
-71.400000	0.002536	-2.380000	2.382536	-0.026789 	0.004139
-71.300000	0.002541	-2.376667	2.379208	-0.026556 	0.004142
-71.200000	0.002546	-2.373333	2.375879	-0.026322 	0.004145
-71.100000	0.002551	-2.370000	2.372551	-0.026086 	0.004148
-71.000000	0.002556	-2.366667	2.369223	-0.025849 	0.004151
-70.900000	0.002561	-2.363333	2.365894	-0.025611 	0.004154
-70.800000	0.002565	-2.360000	2.362565	-0.025371 	0.004156
-70.700000	0.002570	-2.356667	2.359237	-0.025130 	0.004159
-70.600000	0.002574	-2.353333	2.355907	-0.024887 	0.004162
-70.500000	0.002579	-2.350000	2.352579	-0.024643 	0.004165
-70.400000	0.002583	-2.346667	2.349250	-0.024398 	0.004168
-70.300000	0.002587	-2.343333	2.345920	-0.024151 	0.004171
-70.200000	0.002591	-2.340000	2.342591	-0.023903 	0.004174
-70.100000	0.002595	-2.336667	2.339262	-0.023653 	0.004177
-70.000000	0.002600	-2.333333	2.335933	-0.023402 	0.004180
-69.900000	0.002603	-2.330000	2.332603	-0.023150 	0.004183
-69.800000	0.002607	-2.326667	2.329274	-0.022896 	0.004186
-69.700000	0.002611	-2.323333	2.325944	-0.022640 	0.004189
-69.600000	0.002615	-2.320000	2.322615	-0.022384 	0.004192
-69.500000	0.002619	-2.316667	2.319286	-0.022126 	0.004195
-69.400000	0.002622	-2.313333	2.315955	-0.021866 	0.004198
-69.300000	0.002626	-2.310000	2.312626	-0.021605 	0.004201
-69.200000	0.002629	-2.306667	2.309296	-0.021343 	0.004204
-69.100000	0.002633	-2.303333	2.305966	-0.021080 	0.004207
-69.000000	0.002636	-2.300000	2.302636	-0.020815 	0.004210
-68.900000	0.002639	-2.296667	2.299306	-0.020548 	0.004213
-68.800000	0.002642	-2.293333	2.295975	-0.020280 	0.004216
-68.700000	0.002646	-2.290000	2.292646	-0.020011 	0.004219
-68.600000	0.002649	-2.286667	2.289316	-0.019741 	0.004222
-68.500000	0.002652	-2.283333	2.285985	-0.019469 	0.004226
-68.400000	0.002655	-2.280000	2.282655	-0.019196 	0.004229
-68.300000	0.002657	-2.276667	2.279324	-0.018921 	0.004232
-68.200000	0.002660	-2.273333	2.275993	-0.018645 	0.004235
-68.100000	0.002663	-2.270000	2.272663	-0.018368 	0.004238
-68.000000	0.002666	-2.266667	2.269333	-0.018089 	0.004241
-67.900000	0.002668	-2.263333	2.266001	-0.017809 	0.004244
-67.800000	0.002671	-2.260000	2.262671	-0.017527 	0.004247
-67.700000	0.002673	-2.256667	2.259340	-0.017245 	0.004250
-67.600000	0.002676	-2.253333	2.256009	-0.016960 	0.004254
-67.500000	0.002678	-2.250000	2.252678	-0.016675 	0.004257
-67.400000	0.002680	-2.246667	2.249347	-0.016388 	0.004260
-67.300000	0.002682	-2.243333	2.246015	-0.016100 	0.004263
-67.200000	0.002685	-2.240000	2.242685	-0.015811 	0.004266
-67.100000	0.002687	-2.236667	2.239354	-0.015520 	0.004269
-67.000000	0.002689	-2.233333	2.236022	-0.015228 	0.004272
-66.900000	0.002691	-2.230000	2.232691	-0.014934 	0.004276
-66.800000	0.002692	-2.226667	2.229359	-0.014640 	0.004279
-66.700000	0.002694	-2.223333	2.226027	-0.014343 	0.004282
-66.600000	0.002696	-2.220000	2.222696	-0.014046 	0.004285
-66.500000	0.002698	-2.216667	2.219365	-0.013747 	0.004288
-66.400000	0.002699	-2.213333	2.216032	-0.013447 	0.004292
-66.300000	0.002701	-2.210000	2.212701	-0.013146 	0.004295
-66.200000	0.002702	-2.206667	2.209369	-0.012844 	0.004298
-66.100000	0.002704	-2.203333	2.206037	-0.012540 	0.004301
-66.000000	0.002705	-2.200000	2.202705	-0.012235 	0.004305
-65.900000	0.002706	-2.196667	2.199373	-0.011928 	0.004308
-65.800000	0.002708	-2.193333	2.196041	-0.011621 	0.004311
-65.700000	0.002709	-2.190000	2.192709	-0.011312 	0.004314
-65.600000	0.002710	-2.186667	2.189377	-0.011001 	0.004318
-65.500000	0.002711	-2.183333	2.186044	-0.010690 	0.004321
-65.400000	0.002712	-2.180000	2.182712	-0.010377 	0.004324
-65.300000	0.002713	-2.176667	2.179380	-0.010063 	0.004328
-65.200000	0.002714	-2.173333	2.176047	-0.009748 	0.004331
-65.100000	0.002715	-2.170000	2.172715	-0.009431 	0.004334
-65.000000	0.002715	-2.166667	2.169382	-0.009113 	0.004338
-64.900000	0.002716	-2.163333	2.166049	-0.008794 	0.004341
-64.800000	0.002717	-2.160000	2.162717	-0.008474 	0.004344
-64.700000	0.002717	-2.156667	2.159384	-0.008152 	0.004348
-64.600000	0.002718	-2.153333	2.156051	-0.007829 	0.004351
-64.500000	0.002719	-2.150000	2.152719	-0.007505 	0.004354
-64.400000	0.002719	-2.146667	2.149386	-0.007180 	0.004358
-64.300000	0.002719	-2.143333	2.146052	-0.006854 	0.004361
-64.200000	0.002720	-2.140000	2.142720	-0.006526 	0.004364
-64.100000	0.002720	-2.136667	2.139387	-0.006197 	0.004368
-64.000000	0.002720	-2.133333	2.136053	-0.005867 	0.004371
-63.900000	0.002720	-2.130000	2.132720	-0.005535 	0.004375
-63.800000	0.002721	-2.126667	2.129388	-0.005203 	0.004378
-63.700000	0.002721	-2.123333	2.126054	-0.004869 	0.004382
-63.600000	0.002721	-2.120000	2.122721	-0.004534 	0.004385
-63.500000	0.002721	-2.116667	2.119388	-0.004198 	0.004388
-63.400000	0.002721	-2.113333	2.116054	-0.003861 	0.004392
-63.300000	0.002721	-2.110000	2.112721	-0.003522 	0.004395
-63.200000	0.002720	-2.106667	2.109387	-0.003183 	0.004399
-63.100000	0.002720	-2.103333	2.106053	-0.002842 	0.004402
-63.000000	0.002720	-2.100000	2.102720	-0.002500 	0.004406
-62.900000	0.002720	-2.096667	2.099387	-0.002157 	0.004409
-62.800000	0.002719	-2.093333	2.096052	-0.001813 	0.004413
-62.700000	0.002719	-2.090000	2.092719	-0.001467 	0.004416
-62.600000	0.002719	-2.086667	2.089386	-0.001121 	0.004420
-62.500000	0.002718	-2.083333	2.086051	-0.000773 	0.004423
-62.400000	0.002718	-2.080000	2.082718	-0.000425 	0.004427
-62.300000	0.002717	-2.076667	2.079384	-0.000075 	0.004430
-62.200000	0.002716	-2.073333	2.076049	0.000276 	0.004434
-62.100000	0.002716	-2.070000	2.072716	0.000628 	0.004438
-62.000000	0.002715	-2.066667	2.069382	0.000982 	0.004441
-61.900000	0.002714	-2.063333	2.066047	0.001336 	0.004445
-61.800000	0.002714	-2.060000	2.062714	0.001691 	0.004448
-61.700000	0.002713	-2.056667	2.059380	0.002048 	0.004452
-61.600000	0.002712	-2.053333	2.056045	0.002405 	0.004456
-61.500000	0.002711	-2.050000	2.052711	0.002764 	0.004459
-61.400000	0.002710	-2.046667	2.049377	0.003123 	0.004463
-61.300000	0.002709	-2.043333	2.046042	0.003484 	0.004466
-61.200000	0.002708	-2.040000	2.042708	0.003846 	0.004470
-61.100000	0.002707	-2.036667	2.039374	0.004208 	0.004474
-61.000000	0.002706	-2.033333	2.036039	0.004572 	0.004477
-60.900000	0.002705	-2.030000	2.032705	0.004937 	0.004481
-60.800000	0.002704	-2.026667	2.029371	0.005303 	0.004485
-60.700000	0.002703	-2.023333	2.026036	0.005670 	0.004488
-60.600000	0.002701	-2.020000	2.022701	0.006037 	0.004492
-60.500000	0.002700	-2.016667	2.019367	0.006406 	0.004496
-60.400000	0.002699	-2.013333	2.016032	0.006776 	0.004500
-60.300000	0.002698	-2.010000	2.012698	0.007147 	0.004503
-60.200000	0.002696	-2.006667	2.009363	0.007519 	0.004507
-60.100000	0.002695	-2.003333	2.006028	0.007891 	0.004511
-60.000000	0.002693	-2.000000	2.002693	0.008265 	0.004515
-59.900000	0.002692	-1.996667	1.999359	0.008640 	0.004518
-59.800000	0.002690	-1.993333	1.996023	0.009015 	0.004522
-59.700000	0.002689	-1.990000	1.992689	0.009392 	0.004526
-59.600000	0.002687	-1.986667	1.989354	0.009769 	0.004530
-59.500000	0.002686	-1.983333	1.986019	0.010148 	0.004533
-59.400000	0.002684	-1.980000	1.982684	0.010527 	0.004537
-59.300000	0.002683	-1.976667	1.979350	0.010907 	0.004541
-59.200000	0.002681	-1.973333	1.976014	0.011288 	0.004545
-59.100000	0.002679	-1.970000	1.972679	0.011670 	0.004549
-59.000000	0.002678	-1.966667	1.969345	0.012053 	0.004553
-58.900000	0.002676	-1.963333	1.966009	0.012437 	0.004556
-58.800000	0.002674	-1.960000	1.962674	0.012821 	0.004560
-58.700000	0.002672	-1.956667	1.959339	0.013207 	0.004564
-58.600000	0.002671	-1.953333	1.956004	0.013593 	0.004568
-58.500000	0.002669	-1.950000	1.952669	0.013980 	0.004572
-58.400000	0.002667	-1.946667	1.949334	0.014368 	0.004576
-58.300000	0.002665	-1.943333	1.945998	0.014757 	0.004580
-58.200000	0.002663	-1.940000	1.942663	0.015146 	0.004584
-58.100000	0.002662	-1.936667	1.939329	0.015536 	0.004588
-58.000000	0.002660	-1.933333	1.935993	0.015928 	0.004592
-57.900000	0.002658	-1.930000	1.932658	0.016319 	0.004596
-57.800000	0.002656	-1.926667	1.929323	0.016712 	0.004600
-57.700000	0.002654	-1.923333	1.925987	0.017106 	0.004604
-57.600000	0.002652	-1.920000	1.922652	0.017500 	0.004608
-57.500000	0.002650	-1.916667	1.919317	0.017895 	0.004612
-57.400000	0.002648	-1.913333	1.915981	0.018290 	0.004616
-57.300000	0.002646	-1.910000	1.912646	0.018687 	0.004620
-57.200000	0.002644	-1.906667	1.909311	0.019084 	0.004624
-57.100000	0.002642	-1.903333	1.905975	0.019481 	0.004628
-57.000000	0.002640	-1.900000	1.902640	0.019880 	0.004632
-56.900000	0.002638	-1.896667	1.899305	0.020279 	0.004636
-56.800000	0.002636	-1.893333	1.895969	0.020679 	0.004640
-56.700000	0.002634	-1.890000	1.892634	0.021079 	0.004644
-56.600000	0.002632	-1.886667	1.889299	0.021480 	0.004648
-56.500000	0.002630	-1.883333	1.885963	0.021882 	0.004652
-56.400000	0.002628	-1.880000	1.882628	0.022284 	0.004656
-56.300000	0.002626	-1.876667	1.879293	0.022687 	0.004660
-56.200000	0.002624	-1.873333	1.875957	0.023091 	0.004665
-56.100000	0.002622	-1.870000	1.872622	0.023495 	0.004669
-56.000000	0.002620	-1.866667	1.869287	0.023899 	0.004673
-55.900000	0.002618	-1.863333	1.865951	0.024305 	0.004677
-55.800000	0.002616	-1.860000	1.862616	0.024711 	0.004681
-55.700000	0.002614	-1.856667	1.859281	0.025117 	0.004685
-55.600000	0.002612	-1.853333	1.855945	0.025524 	0.004690
-55.500000	0.002610	-1.850000	1.852610	0.025931 	0.004694
-55.400000	0.002608	-1.846667	1.849275	0.026339 	0.004698
-55.300000	0.002605	-1.843333	1.845938	0.026747 	0.004702
-55.200000	0.002603	-1.840000	1.842603	0.027156 	0.004707
-55.100000	0.002601	-1.836667	1.839268	0.027566 	0.004711
-55.000000	0.002600	-1.833333	1.835933	0.027975 	0.004715
-54.900000	0.002598	-1.830000	1.832598	0.028385 	0.004719
-54.800000	0.002596	-1.826667	1.829263	0.028796 	0.004724
-54.700000	0.002594	-1.823333	1.825927	0.029207 	0.004728
-54.600000	0.002592	-1.820000	1.822592	0.029619 	0.004732
-54.500000	0.002590	-1.816667	1.819257	0.030030 	0.004737
-54.400000	0.002588	-1.813333	1.815921	0.030443 	0.004741
-54.300000	0.002586	-1.810000	1.812586	0.030855 	0.004745
-54.200000	0.002584	-1.806667	1.809251	0.031268 	0.004750
-54.100000	0.002582	-1.803333	1.805915	0.031681 	0.004754
-54.000000	0.002581	-1.800000	1.802581	0.032095 	0.004758
-53.900000	0.002579	-1.796667	1.799246	0.032509 	0.004763
-53.800000	0.002577	-1.793333	1.795910	0.032923 	0.004767
-53.700000	0.002575	-1.790000	1.792575	0.033337 	0.004772
-53.600000	0.002574	-1.786667	1.789241	0.033752 	0.004776
-53.500000	0.002572	-1.783333	1.785905	0.034167 	0.004781
-53.400000	0.002570	-1.780000	1.782570	0.034582 	0.004785
-53.300000	0.002569	-1.776667	1.779236	0.034998 	0.004790
-53.200000	0.002567	-1.773333	1.775900	0.035413 	0.004794
-53.100000	0.002565	-1.770000	1.772565	0.035829 	0.004799
-53.000000	0.002564	-1.766667	1.769231	0.036245 	0.004803
-52.900000	0.002562	-1.763333	1.765895	0.036661 	0.004808
-52.800000	0.002561	-1.760000	1.762561	0.037077 	0.004812
-52.700000	0.002560	-1.756667	1.759227	0.037494 	0.004817
-52.600000	0.002558	-1.753333	1.755891	0.037910 	0.004821
-52.500000	0.002557	-1.750000	1.752557	0.038327 	0.004826
-52.400000	0.002556	-1.746667	1.749223	0.038743 	0.004831
-52.300000	0.002554	-1.743333	1.745887	0.039160 	0.004835
-52.200000	0.002553	-1.740000	1.742553	0.039577 	0.004840
-52.100000	0.002552	-1.736667	1.739219	0.039993 	0.004844
-52.000000	0.002551	-1.733333	1.735884	0.040410 	0.004849
-51.900000	0.002550	-1.730000	1.732550	0.040827 	0.004854
-51.800000	0.002549	-1.726667	1.729216	0.041244 	0.004858
-51.700000	0.002548	-1.723333	1.725881	0.041660 	0.004863
-51.600000	0.002547	-1.720000	1.722547	0.042077 	0.004868
-51.500000	0.002546	-1.716667	1.719213	0.042494 	0.004873
-51.400000	0.002545	-1.713333	1.715878	0.042910 	0.004877
-51.300000	0.002545	-1.710000	1.712545	0.043326 	0.004882
-51.200000	0.002544	-1.706667	1.709211	0.043743 	0.004887
-51.100000	0.002543	-1.703333	1.705876	0.044159 	0.004892
-51.000000	0.002543	-1.700000	1.702543	0.044575 	0.004896
-50.900000	0.002542	-1.696667	1.699209	0.044991 	0.004901
-50.800000	0.002542	-1.693333	1.695875	0.045406 	0.004906
-50.700000	0.002542	-1.690000	1.692542	0.045821 	0.004911
-50.600000	0.002541	-1.686667	1.689208	0.046237 	0.004916
-50.500000	0.002541	-1.683333	1.685874	0.046651 	0.004920
-50.400000	0.002541	-1.680000	1.682541	0.047066 	0.004925
-50.300000	0.002541	-1.676667	1.679208	0.047480 	0.004930
-50.200000	0.002541	-1.673333	1.675874	0.047894 	0.004935
-50.100000	0.002541	-1.670000	1.672541	0.048308 	0.004940
-50.000000	0.002541	-1.666667	1.669208	0.048721 	0.004945
-49.900000	0.002541	-1.663333	1.665874	0.049134 	0.004950
-49.800000	0.002541	-1.660000	1.662541	0.049547 	0.004955
-49.700000	0.002542	-1.656667	1.659209	0.049959 	0.004960
-49.600000	0.002542	-1.653333	1.655875	0.050371 	0.004965
-49.500000	0.002543	-1.650000	1.652543	0.050782 	0.004970
-49.400000	0.002543	-1.646667	1.649210	0.051193 	0.004975
-49.300000	0.002544	-1.643333	1.645877	0.051603 	0.004980
-49.200000	0.002545	-1.640000	1.642545	0.052013 	0.004985