VARIABLES = X,Ksi,B,H,U,tau 
ZONE T="Time 60.000000", I=1100, DATAPACKING=POINT
-100.000000	0.013102	-3.333333	3.346435	-0.023034 	0.003492
-99.900000	0.004857	-3.330000	3.334857	-0.009131 	0.003498
-99.800000	0.008228	-3.326667	3.334895	-0.015132 	0.003498
-99.700000	0.006633	-3.323333	3.329966	-0.012619 	0.003501
-99.600000	0.007162	-3.320000	3.327162	-0.013749 	0.003503
-99.500000	0.006783	-3.316667	3.323450	-0.013321 	0.003504
-99.400000	0.006791	-3.313333	3.320124	-0.013559 	0.003506
-99.300000	0.006633	-3.310000	3.316633	-0.013511 	0.003508
-99.200000	0.006546	-3.306667	3.313213	-0.013585 	0.003510
-99.100000	0.006429	-3.303333	3.309762	-0.013607 	0.003512
-99.000000	0.006324	-3.300000	3.306324	-0.013651 	0.003514
-98.900000	0.006214	-3.296667	3.302881	-0.013685 	0.003515
-98.800000	0.006105	-3.293333	3.299438	-0.013723 	0.003517
-98.700000	0.005996	-3.290000	3.295996	-0.013759 	0.003519
-98.600000	0.005886	-3.286667	3.292553	-0.013795 	0.003521
-98.500000	0.005776	-3.283333	3.289109	-0.013831 	0.003523
-98.400000	0.005667	-3.280000	3.285667	-0.013867 	0.003525
-98.300000	0.005556	-3.276667	3.282223	-0.013903 	0.003526
-98.200000	0.005446	-3.273333	3.278779	-0.013938 	0.003528
-98.100000	0.005335	-3.270000	3.275335	-0.013973 	0.003530
-98.000000	0.005225	-3.266667	3.271892	-0.014008 	0.003532
-97.900000	0.005113	-3.263333	3.268446	-0.014042 	0.003534
-97.800000	0.005002	-3.260000	3.265002	-0.014077 	0.003536
-97.700000	0.004891	-3.256667	3.261558	-0.014111 	0.003538
-97.600000	0.004779	-3.253333	3.258112	-0.014145 	0.003539
-97.500000	0.004667	-3.250000	3.254667	-0.014178 	0.003541
-97.400000	0.004555	-3.246667	3.251222	-0.014211 	0.003543
-97.300000	0.004443	-3.243333	3.247776	-0.014244 	0.003545
-97.200000	0.004331	-3.240000	3.244331	-0.014277 	0.003547
-97.100000	0.004218	-3.236667	3.240885	-0.014310 	0.003549
-97.000000	0.004106	-3.233333	3.237439	-0.014342 	0.003551
-96.900000	0.003993	-3.230000	3.233993	-0.014374 	0.003553
-96.800000	0.003880	-3.226667	3.230547	-0.014405 	0.003555
-96.700000	0.003766	-3.223333	3.227099	-0.014437 	0.003556
-96.600000	0.003653	-3.220000	3.223653	-0.014468 	0.003558
-96.500000	0.003539	-3.216667	3.220206	-0.014499 	0.003560
-96.400000	0.003426	-3.213333	3.216759	-0.014530 	0.003562
-96.300000	0.003312	-3.210000	3.213312	-0.014560 	0.003564
-96.200000	0.003198	-3.206667	3.209865	-0.014590 	0.003566
-96.100000	0.003083	-3.203333	3.206416	-0.014620 	0.003568
-96.000000	0.002969	-3.200000	3.202969	-0.014649 	0.003570
-95.900000	0.002854	-3.196667	3.199521	-0.014679 	0.003572
-95.800000	0.002740	-3.193333	3.196073	-0.014708 	0.003574
-95.700000	0.002625	-3.190000	3.192625	-0.014736 	0.003576
-95.600000	0.002510	-3.186667	3.189177	-0.014765 	0.003577
-95.500000	0.002394	-3.183333	3.185727	-0.014793 	0.003579
-95.400000	0.002279	-3.180000	3.182279	-0.014821 	0.003581
-95.300000	0.002164	-3.176667	3.178831	-0.014849 	0.003583
-95.200000	0.002048	-3.173333	3.175381	-0.014876 	0.003585
-95.100000	0.001932	-3.170000	3.171932	-0.014903 	0.003587
-95.000000	0.001816	-3.166667	3.168483	-0.014930 	0.003589
-94.900000	0.001700	-3.163333	3.165033	-0.014956 	0.003591
-94.800000	0.001584	-3.160000	3.161584	-0.014982 	0.003593
-94.700000	0.001468	-3.156667	3.158135	-0.015008 	0.003595
-94.600000	0.001352	-3.153333	3.154685	-0.015034 	0.003597
-94.500000	0.001235	-3.150000	3.151235	-0.015059 	0.003599
-94.400000	0.001119	-3.146667	3.147786	-0.015084 	0.003601
-94.300000	0.001002	-3.143333	3.144335	-0.015109 	0.003603
-94.200000	0.000885	-3.140000	3.140885	-0.015133 	0.003605
-94.100000	0.000768	-3.136667	3.137435	-0.015157 	0.003607
-94.000000	0.000651	-3.133333	3.133984	-0.015181 	0.003609
-93.900000	0.000534	-3.130000	3.130534	-0.015204 	0.003611
-93.800000	0.000417	-3.126667	3.127084	-0.015228 	0.003613
-93.700000	0.000299	-3.123333	3.123632	-0.015251 	0.003615
-93.600000	0.000182	-3.120000	3.120182	-0.015273 	0.003617
-93.500000	0.000064	-3.116667	3.116731	-0.015295 	0.003619
-93.400000	-0.000053	-3.113333	3.113280	-0.015317 	0.003621
-93.300000	-0.000171	-3.110000	3.109829	-0.015339 	0.003623
-93.200000	-0.000289	-3.106667	3.106378	-0.015360 	0.003625
-93.100000	-0.000407	-3.103333	3.102926	-0.015381 	0.003627
-93.000000	-0.000525	-3.100000	3.099475	-0.015402 	0.003629
-92.900000	-0.000643	-3.096667	3.096024	-0.015422 	0.003631
-92.800000	-0.000761	-3.093333	3.092572	-0.015443 	0.003633
-92.700000	-0.000879	-3.090000	3.089121	-0.015462 	0.003635
-92.600000	-0.000998	-3.086667	3.085669	-0.015482 	0.003637
-92.500000	-0.001116	-3.083333	3.082217	-0.015501 	0.003639
-92.400000	-0.001234	-3.080000	3.078766	-0.015520 	0.003641
-92.300000	-0.001353	-3.076667	3.075314	-0.015538 	0.003643
-92.200000	-0.001471	-3.073333	3.071862	-0.015556 	0.003645
-92.100000	-0.001590	-3.070000	3.068410	-0.015574 	0.003647
-92.000000	-0.001708	-3.066667	3.064959	-0.015592 	0.003649
-91.900000	-0.001827	-3.063333	3.061506	-0.015609 	0.003651
-91.800000	-0.001946	-3.060000	3.058054	-0.015626 	0.003653
-91.700000	-0.002065	-3.056667	3.054602	-0.015642 	0.003655
-91.600000	-0.002183	-3.053333	3.051150	-0.015659 	0.003658
-91.500000	-0.002302	-3.050000	3.047698	-0.015674 	0.003660
-91.400000	-0.002421	-3.046667	3.044246	-0.015690 	0.003662
-91.300000	-0.002540	-3.043333	3.040793	-0.015705 	0.003664
-91.200000	-0.002659	-3.040000	3.037341	-0.015720 	0.003666
-91.100000	-0.002778	-3.036667	3.033889	-0.015734 	0.003668
-91.000000	-0.002897	-3.033333	3.030436	-0.015749 	0.003670
-90.900000	-0.003016	-3.030000	3.026984	-0.015762 	0.003672
-90.800000	-0.003135	-3.026667	3.023532	-0.015776 	0.003674
-90.700000	-0.003254	-3.023333	3.020079	-0.015789 	0.003676
-90.600000	-0.003373	-3.020000	3.016627	-0.015802 	0.003678
-90.500000	-0.003492	-3.016667	3.013175	-0.015814 	0.003680
-90.400000	-0.003611	-3.013333	3.009722	-0.015826 	0.003683
-90.300000	-0.003730	-3.010000	3.006270	-0.015838 	0.003685
-90.200000	-0.003849	-3.006667	3.002818	-0.015849 	0.003687
-90.100000	-0.003968	-3.003333	2.999365	-0.015860 	0.003689
-90.000000	-0.004087	-3.000000	2.995913	-0.015871 	0.003691
-89.900000	-0.004206	-2.996667	2.992461	-0.015881 	0.003693
-89.800000	-0.004325	-2.993333	2.989008	-0.015891 	0.003695
-89.700000	-0.004444	-2.990000	2.985556	-0.015901 	0.003697
-89.600000	-0.004563	-2.986667	2.982104	-0.015910 	0.003700
-89.500000	-0.004682	-2.983333	2.978651	-0.015919 	0.003702
-89.400000	-0.004801	-2.980000	2.975199	-0.015928 	0.003704
-89.300000	-0.004920	-2.976667	2.971747	-0.015936 	0.003706
-89.200000	-0.005039	-2.973333	2.968294	-0.015944 	0.003708
-89.100000	-0.005158	-2.970000	2.964842	-0.015951 	0.003710
-89.000000	-0.005277	-2.966667	2.961390	-0.015958 	0.003713
-88.900000	-0.005395	-2.963333	2.957938	-0.015965 	0.003715
-88.800000	-0.005514	-2.960000	2.954486	-0.015971 	0.003717
-88.700000	-0.005633	-2.956667	2.951034	-0.015977 	0.003719
-88.600000	-0.005751	-2.953333	2.947582	-0.015983 	0.003721
-88.500000	-0.005870	-2.950000	2.944130	-0.015988 	0.003723
-88.400000	-0.005989	-2.946667	2.940678	-0.015993 	0.003726
-88.300000	-0.006107	-2.943333	2.937226	-0.015997 	0.003728
-88.200000	-0.006225	-2.940000	2.933775	-0.016001 	0.003730
-88.100000	-0.006344	-2.936667	2.930323	-0.016005 	0.003732
-88.000000	-0.006462	-2.933333	2.926871	-0.016008 	0.003734
-87.900000	-0.006580	-2.930000	2.923420	-0.016011 	0.003737
-87.800000	-0.006698	-2.926667	2.919969	-0.016014 	0.003739
-87.700000	-0.006816	-2.923333	2.916517	-0.016016 	0.003741
-87.600000	-0.006934	-2.920000	2.913066	-0.016018 	0.003743
-87.500000	-0.007052	-2.916667	2.909615	-0.016019 	0.003745
-87.400000	-0.007170	-2.913333	2.906163	-0.016020 	0.003748
-87.300000	-0.007288	-2.910000	2.902712	-0.016021 	0.003750
-87.200000	-0.007405	-2.906667	2.899262	-0.016021 	0.003752
-87.100000	-0.007523	-2.903333	2.895810	-0.016021 	0.003754
-87.000000	-0.007640	-2.900000	2.892360	-0.016020 	0.003757
-86.900000	-0.007758	-2.896667	2.888909	-0.016019 	0.003759
-86.800000	-0.007875	-2.893333	2.885458	-0.016018 	0.003761
-86.700000	-0.007992	-2.890000	2.882008	-0.016016 	0.003763
-86.600000	-0.008109	-2.886667	2.878558	-0.016014 	0.003766
-86.500000	-0.008226	-2.883333	2.875107	-0.016012 	0.003768
-86.400000	-0.008343	-2.880000	2.871657	-0.016009 	0.003770
-86.300000	-0.008459	-2.876667	2.868208	-0.016005 	0.003772
-86.200000	-0.008576	-2.873333	2.864757	-0.016002 	0.003775
-86.100000	-0.008692	-2.870000	2.861308	-0.015997 	0.003777
-86.000000	-0.008808	-2.866667	2.857859	-0.015993 	0.003779
-85.900000	-0.008924	-2.863333	2.854409	-0.015988 	0.003781
-85.800000	-0.009040	-2.860000	2.850960	-0.015983 	0.003784
-85.700000	-0.009156	-2.856667	2.847511	-0.015977 	0.003786
-85.600000	-0.009272	-2.853333	2.844061	-0.015971 	0.003788
-85.500000	-0.009388	-2.850000	2.840612	-0.015964 	0.003791
-85.400000	-0.009503	-2.846667	2.837164	-0.015957 	0.003793
-85.300000	-0.009618	-2.843333	2.833715	-0.015949 	0.003795
-85.200000	-0.009733	-2.840000	2.830267	-0.015942 	0.003798
-85.100000	-0.009848	-2.836667	2.826819	-0.015933 	0.003800
-85.000000	-0.009963	-2.833333	2.823370	-0.015925 	0.003802
-84.900000	-0.010077	-2.830000	2.819923	-0.015916 	0.003805
-84.800000	-0.010192	-2.826667	2.816475	-0.015906 	0.003807
-84.700000	-0.010306	-2.823333	2.813027	-0.015896 	0.003809
-84.600000	-0.010420	-2.820000	2.809580	-0.015886 	0.003812
-84.500000	-0.010534	-2.816667	2.806133	-0.015875 	0.003814
-84.400000	-0.010648	-2.813333	2.802685	-0.015864 	0.003816
-84.300000	-0.010761	-2.810000	2.799239	-0.015852 	0.003819
-84.200000	-0.010875	-2.806667	2.795792	-0.015840 	0.003821
-84.100000	-0.010988	-2.803333	2.792345	-0.015828 	0.003823
-84.000000	-0.011101	-2.800000	2.788899	-0.015815 	0.003826
-83.900000	-0.011213	-2.796667	2.785454	-0.015801 	0.003828
-83.800000	-0.011326	-2.793333	2.782007	-0.015788 	0.003830
-83.700000	-0.011438	-2.790000	2.778562	-0.015773 	0.003833
-83.600000	-0.011550	-2.786667	2.775117	-0.015759 	0.003835
-83.500000	-0.011662	-2.783333	2.771671	-0.015744 	0.003837
-83.400000	-0.011774	-2.780000	2.768226	-0.015728 	0.003840
-83.300000	-0.011885	-2.776667	2.764782	-0.015712 	0.003842
-83.200000	-0.011997	-2.773333	2.761336	-0.015696 	0.003845
-83.100000	-0.012108	-2.770000	2.757892	-0.015679 	0.003847
-83.000000	-0.012218	-2.766667	2.754449	-0.015662 	0.003849
-82.900000	-0.012329	-2.763333	2.751004	-0.015644 	0.003852
-82.800000	-0.012439	-2.760000	2.747561	-0.015626 	0.003854
-82.700000	-0.012549	-2.756667	2.744118	-0.015607 	0.003857
-82.600000	-0.012659	-2.753333	2.740674	-0.015588 	0.003859
-82.500000	-0.012768	-2.750000	2.737232	-0.015569 	0.003862
-82.400000	-0.012878	-2.746667	2.733789	-0.015549 	0.003864
-82.300000	-0.012987	-2.743333	2.730346	-0.015528 	0.003866
-82.200000	-0.013096	-2.740000	2.726904	-0.015507 	0.003869
-82.100000	-0.013204	-2.736667	2.723463	-0.015486 	0.003871
-82.000000	-0.013312	-2.733333	2.720021	-0.015464 	0.003874
-81.900000	-0.013420	-2.730000	2.716580	-0.015442 	0.003876
-81.800000	-0.013528	-2.726667	2.713139	-0.015420 	0.003879
-81.700000	-0.013636	-2.723333	2.709697	-0.015397 	0.003881
-81.600000	-0.013743	-2.720000	2.706257	-0.015373 	0.003884
-81.500000	-0.013850	-2.716667	2.702817	-0.015349 	0.003886
-81.400000	-0.013956	-2.713333	2.699377	-0.015325 	0.003889
-81.300000	-0.014062	-2.710000	2.695938	-0.015300 	0.003891
-81.200000	-0.014168	-2.706667	2.692499	-0.015274 	0.003893
-81.100000	-0.014274	-2.703333	2.689059	-0.015249 	0.003896
-81.000000	-0.014380	-2.700000	2.685620	-0.015222 	0.003898
-80.900000	-0.014485	-2.696667	2.682182	-0.015196 	0.003901
-80.800000	-0.014589	-2.693333	2.678744	-0.015169 	0.003903
-80.700000	-0.014694	-2.690000	2.675306	-0.015141 	0.003906
-80.600000	-0.014798	-2.686667	2.671869	-0.015113 	0.003908
-80.500000	-0.014902	-2.683333	2.668431	-0.015084 	0.003911
-80.400000	-0.015005	-2.680000	2.664995	-0.015055 	0.003914
-80.300000	-0.015109	-2.676667	2.661558	-0.015026 	0.003916
-80.200000	-0.015212	-2.673333	2.658121	-0.014996 	0.003919
-80.100000	-0.015314	-2.670000	2.654686	-0.014965 	0.003921
-80.000000	-0.015416	-2.666667	2.651251	-0.014935 	0.003924
-79.900000	-0.015518	-2.663333	2.647815	-0.014903 	0.003926
-79.800000	-0.015620	-2.660000	2.644380	-0.014871 	0.003929
-79.700000	-0.015721	-2.656667	2.640946	-0.014839 	0.003931
-79.600000	-0.015822	-2.653333	2.637511	-0.014806 	0.003934
-79.500000	-0.015922	-2.650000	2.634078	-0.014773 	0.003936
-79.400000	-0.016022	-2.646667	2.630645	-0.014740 	0.003939
-79.300000	-0.016122	-2.643333	2.627211	-0.014706 	0.003942
-79.200000	-0.016221	-2.640000	2.623779	-0.014671 	0.003944
-79.100000	-0.016320	-2.636667	2.620347	-0.014636 	0.003947
-79.000000	-0.016419	-2.633333	2.616914	-0.014600 	0.003949
-78.900000	-0.016517	-2.630000	2.613483	-0.014564 	0.003952
-78.800000	-0.016615	-2.626667	2.610052	-0.014528 	0.003955
-78.700000	-0.016713	-2.623333	2.606620	-0.014491 	0.003957
-78.600000	-0.016810	-2.620000	2.603190	-0.014454 	0.003960
-78.500000	-0.016907	-2.616667	2.599760	-0.014416 	0.003962
-78.400000	-0.017003	-2.613333	2.596330	-0.014377 	0.003965
-78.300000	-0.017099	-2.610000	2.592901	-0.014339 	0.003968
-78.200000	-0.017194	-2.606667	2.589473	-0.014299 	0.003970
-78.100000	-0.017289	-2.603333	2.586044	-0.014260 	0.003973
-78.000000	-0.017384	-2.600000	2.582616	-0.014219 	0.003975
-77.900000	-0.017479	-2.596667	2.579188	-0.014179 	0.003978
-77.800000	-0.017572	-2.593333	2.575761	-0.014137 	0.003981
-77.700000	-0.017666	-2.590000	2.572334	-0.014096 	0.003983
-77.600000	-0.017759	-2.586667	2.568908	-0.014054 	0.003986
-77.500000	-0.017852	-2.583333	2.565481	-0.014011 	0.003989
-77.400000	-0.017944	-2.580000	2.562056	-0.013968 	0.003991
-77.300000	-0.018036	-2.576667	2.558631	-0.013925 	0.003994
-77.200000	-0.018127	-2.573333	2.555206	-0.013881 	0.003997
-77.100000	-0.018218	-2.570000	2.551782	-0.013836 	0.003999
-77.000000	-0.018308	-2.566667	2.548359	-0.013791 	0.004002
-76.900000	-0.018398	-2.563333	2.544935	-0.013746 	0.004005
-76.800000	-0.018488	-2.560000	2.541512	-0.013700 	0.004007
-76.700000	-0.018577	-2.556667	2.538090	-0.013654 	0.004010
-76.600000	-0.018666	-2.553333	2.534667	-0.013607 	0.004013
-76.500000	-0.018754	-2.550000	2.531246	-0.013559 	0.004016
-76.400000	-0.018842	-2.546667	2.527825	-0.013512 	0.004018
-76.300000	-0.018929	-2.543333	2.524404	-0.013463 	0.004021
-76.200000	-0.019016	-2.540000	2.520984	-0.013415 	0.004024
-76.100000	-0.019102	-2.536667	2.517565	-0.013366 	0.004026
-76.000000	-0.019188	-2.533333	2.514145	-0.013316 	0.004029
-75.900000	-0.019273	-2.530000	2.510727	-0.013266 	0.004032
-75.800000	-0.019358	-2.526667	2.507309	-0.013215 	0.004035
-75.700000	-0.019442	-2.523333	2.503891	-0.013164 	0.004037
-75.600000	-0.019526	-2.520000	2.500474	-0.013113 	0.004040
-75.500000	-0.019610	-2.516667	2.497057	-0.013061 	0.004043
-75.400000	-0.019692	-2.513333	2.493641	-0.013008 	0.004046
-75.300000	-0.019775	-2.510000	2.490225	-0.012955 	0.004049
-75.200000	-0.019857	-2.506667	2.486810	-0.012902 	0.004051
-75.100000	-0.019938	-2.503333	2.483395	-0.012848 	0.004054
-75.000000	-0.020019	-2.500000	2.479981	-0.012794 	0.004057
-74.900000	-0.020099	-2.496667	2.476568	-0.012739 	0.004060
-74.800000	-0.020179	-2.493333	2.473154	-0.012683 	0.004062
-74.700000	-0.020258	-2.490000	2.469742	-0.012628 	0.004065
-74.600000	-0.020337	-2.486667	2.466330	-0.012571 	0.004068
-74.500000	-0.020415	-2.483333	2.462918	-0.012515 	0.004071
-74.400000	-0.020493	-2.480000	2.459507	-0.012458 	0.004074
-74.300000	-0.020570	-2.476667	2.456097	-0.012400 	0.004077
-74.200000	-0.020646	-2.473333	2.452687	-0.012342 	0.004079
-74.100000	-0.020723	-2.470000	2.449277	-0.012284 	0.004082
-74.000000	-0.020798	-2.466667	2.445869	-0.012225 	0.004085
-73.900000	-0.020873	-2.463333	2.442460	-0.012165 	0.004088
-73.800000	-0.020947	-2.460000	2.439053	-0.012105 	0.004091
-73.700000	-0.021021	-2.456667	2.435646	-0.012045 	0.004094
-73.600000	-0.021094	-2.453333	2.432239	-0.011984 	0.004097
-73.500000	-0.021167	-2.450000	2.428833	-0.011923 	0.004099
-73.400000	-0.021239	-2.446667	2.425428	-0.011861 	0.004102
-73.300000	-0.021311	-2.443333	2.422022	-0.011799 	0.004105
-73.200000	-0.021382	-2.440000	2.418618	-0.011736 	0.004108
-73.100000	-0.021452	-2.436667	2.415215	-0.011673 	0.004111
-73.000000	-0.021522	-2.433333	2.411811	-0.011609 	0.004114
-72.900000	-0.021591	-2.430000	2.408409	-0.011545 	0.004117
-72.800000	-0.021659	-2.426667	2.405008	-0.011481 	0.004120
-72.700000	-0.021727	-2.423333	2.401606	-0.011416 	0.004123
-72.600000	-0.021795	-2.420000	2.398205	-0.011350 	0.004125
-72.500000	-0.021862	-2.416667	2.394805	-0.011284 	0.004128
-72.400000	-0.021928	-2.413333	2.391405	-0.011218 	0.004131
-72.300000	-0.021993	-2.410000	2.388007	-0.011151 	0.004134
-72.200000	-0.022058	-2.406667	2.384609	-0.011084 	0.004137
-72.100000	-0.022123	-2.403333	2.381210	-0.011016 	0.004140
-72.000000	-0.022186	-2.400000	2.377814	-0.010948 	0.004143
-71.900000	-0.022249	-2.396667	2.374418	-0.010880 	0.004146
-71.800000	-0.022312	-2.393333	2.371021	-0.010811 	0.004149
-71.700000	-0.022374	-2.390000	2.367626	-0.010741 	0.004152
-71.600000	-0.022435	-2.386667	2.364232	-0.010671 	0.004155
-71.500000	-0.022495	-2.383333	2.360838	-0.010601 	0.004158
-71.400000	-0.022555	-2.380000	2.357445	-0.010530 	0.004161
-71.300000	-0.022615	-2.376667	2.354052	-0.010459 	0.004164
-71.200000	-0.022673	-2.373333	2.350660	-0.010387 	0.004167
-71.100000	-0.022731	-2.370000	2.347269	-0.010315 	0.004170
-71.000000	-0.022789	-2.366667	2.343878	-0.010242 	0.004173
-70.900000	-0.022845	-2.363333	2.340488	-0.010169 	0.004176
-70.800000	-0.022901	-2.360000	2.337099	-0.010096 	0.004179
-70.700000	-0.022957	-2.356667	2.333710	-0.010022 	0.004182
-70.600000	-0.023011	-2.353333	2.330322	-0.009948 	0.004185
-70.500000	-0.023065	-2.350000	2.326935	-0.009873 	0.004188
-70.400000	-0.023119	-2.346667	2.323548	-0.009797 	0.004191
-70.300000	-0.023171	-2.343333	2.320162	-0.009722 	0.004194
-70.200000	-0.023223	-2.340000	2.316777	-0.009646 	0.004197
-70.100000	-0.023275	-2.336667	2.313392	-0.009569 	0.004200
-70.000000	-0.023325	-2.333333	2.310008	-0.009492 	0.004203
-69.900000	-0.023375	-2.330000	2.306625	-0.009415 	0.004207
-69.800000	-0.023425	-2.326667	2.303242	-0.009337 	0.004210
-69.700000	-0.023473	-2.323333	2.299860	-0.009259 	0.004213
-69.600000	-0.023521	-2.320000	2.296479	-0.009180 	0.004216
-69.500000	-0.023568	-2.316667	2.293099	-0.009101 	0.004219
-69.400000	-0.023615	-2.313333	2.289718	-0.009021 	0.004222
-69.300000	-0.023660	-2.310000	2.286340	-0.008941 	0.004225
-69.200000	-0.023706	-2.306667	2.282961	-0.008860 	0.004228
-69.100000	-0.023750	-2.303333	2.279583	-0.008780 	0.004231
-69.000000	-0.023794	-2.300000	2.276206	-0.008698 	0.004235
-68.900000	-0.023836	-2.296667	2.272831	-0.008616 	0.004238
-68.800000	-0.023879	-2.293333	2.269454	-0.008534 	0.004241
-68.700000	-0.023920	-2.290000	2.266080	-0.008452 	0.004244
-68.600000	-0.023961	-2.286667	2.262706	-0.008369 	0.004247
-68.500000	-0.024001	-2.283333	2.259332	-0.008285 	0.004250
-68.400000	-0.024040	-2.280000	2.255960	-0.008201 	0.004254
-68.300000	-0.024079	-2.276667	2.252588	-0.008117 	0.004257
-68.200000	-0.024117	-2.273333	2.249216	-0.008032 	0.004260
-68.100000	-0.024154	-2.270000	2.245846	-0.007947 	0.004263
-68.000000	-0.024190	-2.266667	2.242477	-0.007861 	0.004266
-67.900000	-0.024226	-2.263333	2.239107	-0.007775 	0.004270
-67.800000	-0.024261	-2.260000	2.235739	-0.007689 	0.004273
-67.700000	-0.024295	-2.256667	2.232372	-0.007602 	0.004276
-67.600000	-0.024328	-2.253333	2.229005	-0.007515 	0.004279
-67.500000	-0.024361	-2.250000	2.225639	-0.007427 	0.004282
-67.400000	-0.024393	-2.246667	2.222274	-0.007339 	0.004286
-67.300000	-0.024424	-2.243333	2.218909	-0.007250 	0.004289
-67.200000	-0.024455	-2.240000	2.215545	-0.007161 	0.004292
-67.100000	-0.024484	-2.236667	2.212183	-0.007072 	0.004295
-67.000000	-0.024513	-2.233333	2.208820	-0.006982 	0.004299
-66.900000	-0.024541	-2.230000	2.205459	-0.006891 	0.004302
-66.800000	-0.024569	-2.226667	2.202098	-0.006801 	0.004305
-66.700000	-0.024595	-2.223333	2.198738	-0.006710 	0.004309
-66.600000	-0.024621	-2.220000	2.195379	-0.006618 	0.004312
-66.500000	-0.024646	-2.216667	2.192021	-0.006526 	0.004315
-66.400000	-0.024671	-2.213333	2.188662	-0.006434 	0.004318
-66.300000	-0.024694	-2.210000	2.185306	-0.006341 	0.004322
-66.200000	-0.024717	-2.206667	2.181950	-0.006248 	0.004325
-66.100000	-0.024739	-2.203333	2.178594	-0.006154 	0.004328
-66.000000	-0.024760	-2.200000	2.175240	-0.006060 	0.004332
-65.900000	-0.024780	-2.196667	2.171887	-0.005965 	0.004335
-65.800000	-0.024800	-2.193333	2.168533	-0.005870 	0.004338
-65.700000	-0.024819	-2.190000	2.165181	-0.005775 	0.004342
-65.600000	-0.024837	-2.186667	2.161830	-0.005679 	0.004345
-65.500000	-0.024854	-2.183333	2.158479	-0.005583 	0.004349
-65.400000	-0.024871	-2.180000	2.155129	-0.005486 	0.004352
-65.300000	-0.024886	-2.176667	2.151781	-0.005389 	0.004355
-65.200000	-0.024901	-2.173333	2.148432	-0.005292 	0.004359
-65.100000	-0.024915	-2.170000	2.145085	-0.005194 	0.004362
-65.000000	-0.024929	-2.166667	2.141738	-0.005096 	0.004365
-64.900000	-0.024941	-2.163333	2.138392	-0.004997 	0.004369
-64.800000	-0.024953	-2.160000	2.135047	-0.004898 	0.004372
-64.700000	-0.024964	-2.156667	2.131703	-0.004798 	0.004376
-64.600000	-0.024974	-2.153333	2.128359	-0.004698 	0.004379
-64.500000	-0.024983	-2.150000	2.125017	-0.004597 	0.004383
-64.400000	-0.024992	-2.146667	2.121675	-0.004497 	0.004386
-64.300000	-0.024999	-2.143333	2.118334	-0.004395 	0.004390
-64.200000	-0.025006	-2.140000	2.114994	-0.004294 	0.004393
-64.100000	-0.025012	-2.136667	2.111655	-0.004191 	0.004396
-64.000000	-0.025018	-2.133333	2.108315	-0.004089 	0.004400
-63.900000	-0.025022	-2.130000	2.104978	-0.003986 	0.004403
-63.800000	-0.025026	-2.126667	2.101641	-0.003882 	0.004407
-63.700000	-0.025029	-2.123333	2.098304	-0.003779 	0.004410
-63.600000	-0.025031	-2.120000	2.094969	-0.003674 	0.004414
-63.500000	-0.025032	-2.116667	2.091635	-0.003570 	0.004417
-63.400000	-0.025032	-2.113333	2.088301	-0.003464 	0.004421
-63.300000	-0.025032	-2.110000	2.084968	-0.003359 	0.004425
-63.200000	-0.025030	-2.106667	2.081637	-0.003253 	0.004428
-63.100000	-0.025028	-2.103333	2.078305	-0.003146 	0.004432
-63.000000	-0.025025	-2.100000	2.074975	-0.003040 	0.004435
-62.900000	-0.025022	-2.096667	2.071645	-0.002932 	0.004439
-62.800000	-0.025017	-2.093333	2.068316	-0.002825 	0.004442
-62.700000	-0.025012	-2.090000	2.064988	-0.002717 	0.004446
-62.600000	-0.025006	-2.086667	2.061661	-0.002608 	0.004449
-62.500000	-0.024998	-2.083333	2.058335	-0.002499 	0.004453
-62.400000	-0.024991	-2.080000	2.055009	-0.002390 	0.004457
-62.300000	-0.024982	-2.076667	2.051685	-0.002280 	0.004460
-62.200000	-0.024972	-2.073333	2.048361	-0.002170 	0.004464
-62.100000	-0.024962	-2.070000	2.045038	-0.002059 	0.004468
-62.000000	-0.024951	-2.066667	2.041716	-0.001948 	0.004471
-61.900000	-0.024939	-2.063333	2.038394	-0.001836 	0.004475
-61.800000	-0.024926	-2.060000	2.035074	-0.001724 	0.004478
-61.700000	-0.024912	-2.056667	2.031755	-0.001612 	0.004482
-61.600000	-0.024898	-2.053333	2.028435	-0.001499 	0.004486
-61.500000	-0.024882	-2.050000	2.025118	-0.001386 	0.004489
-61.400000	-0.024866	-2.046667	2.021801	-0.001272 	0.004493
-61.300000	-0.024849	-2.043333	2.018484	-0.001158 	0.004497
-61.200000	-0.024831	-2.040000	2.015169	-0.001044 	0.004501
-61.100000	-0.024812	-2.036667	2.011855	-0.000929 	0.004504
-61.000000	-0.024793	-2.033333	2.008540	-0.000814 	0.004508
-60.900000	-0.024772	-2.030000	2.005228	-0.000698 	0.004512
-60.800000	-0.024751	-2.026667	2.001916	-0.000582 	0.004515
-60.700000	-0.024729	-2.023333	1.998604	-0.000465 	0.004519
-60.600000	-0.024706	-2.020000	1.995294	-0.000348 	0.004523
-60.500000	-0.024682	-2.016667	1.991985	-0.000231 	0.004527
-60.400000	-0.024658	-2.013333	1.988675	-0.000113 	0.004530
-60.300000	-0.024632	-2.010000	1.985368	0.000006 	0.004534
-60.200000	-0.024606	-2.006667	1.982061	0.000124 	0.004538
-60.100000	-0.024579	-2.003333	1.978754	0.000243 	0.004542
-60.000000	-0.024551	-2.000000	1.975449	0.000363 	0.004546
-59.900000	-0.024522	-1.996667	1.972145	0.000483 	0.004549
-59.800000	-0.024492	-1.993333	1.968841	0.000603 	0.004553
-59.700000	-0.024461	-1.990000	1.965539	0.000724 	0.004557
-59.600000	-0.024430	-1.986667	1.962237	0.000845 	0.004561
-59.500000	-0.024398	-1.983333	1.958935	0.000967 	0.004565
-59.400000	-0.024364	-1.980000	1.955636	0.001089 	0.004568
-59.300000	-0.024330	-1.976667	1.952337	0.001211 	0.004572
-59.200000	-0.024295	-1.973333	1.949038	0.001334 	0.004576
-59.100000	-0.024260	-1.970000	1.945740	0.001457 	0.004580
-59.000000	-0.024223	-1.966667	1.942444	0.001581 	0.004584
-58.900000	-0.024186	-1.963333	1.939147	0.001705 	0.004588
-58.800000	-0.024147	-1.960000	1.935853	0.001829 	0.004592
-58.700000	-0.024108	-1.956667	1.932559	0.001954 	0.004596
-58.600000	-0.024068	-1.953333	1.929265	0.002079 	0.004600
-58.500000	-0.024027	-1.950000	1.925973	0.002205 	0.004604
-58.400000	-0.023985	-1.946667	1.922682	0.002331 	0.004607
-58.300000	-0.023943	-1.943333	1.919390	0.002457 	0.004611
-58.200000	-0.023899	-1.940000	1.916101	0.002584 	0.004615
-58.100000	-0.023855	-1.936667	1.912812	0.002711 	0.004619
-58.000000	-0.023810	-1.933333	1.909523	0.002839 	0.004623
-57.900000	-0.023764	-1.930000	1.906236	0.002966 	0.004627
-57.800000	-0.023717	-1.926667	1.902950	0.003095 	0.004631
-57.700000	-0.023669	-1.923333	1.899664	0.003223 	0.004635
-57.600000	-0.023620	-1.920000	1.896380	0.003352 	0.004639
-57.500000	-0.023570	-1.916667	1.893097	0.003482 	0.004643
-57.400000	-0.023520	-1.913333	1.889813	0.003612 	0.004647
-57.300000	-0.023469	-1.910000	1.886531	0.003742 	0.004651
-57.200000	-0.023416	-1.906667	1.883251	0.003872 	0.004655
-57.100000	-0.023363	-1.903333	1.879970	0.004003 	0.004660
-57.000000	-0.023309	-1.900000	1.876691	0.004134 	0.004664
-56.900000	-0.023255	-1.896667	1.873412	0.004266 	0.004668
-56.800000	-0.023199	-1.893333	1.870134	0.004398 	0.004672
-56.700000	-0.023142	-1.890000	1.866858	0.004530 	0.004676
-56.600000	-0.023085	-1.886667	1.863582	0.004663 	0.004680
-56.500000	-0.023027	-1.883333	1.860306	0.004796 	0.004684
-56.400000	-0.022967	-1.880000	1.857033	0.004929 	0.004688
-56.300000	-0.022907	-1.876667	1.853760	0.005063 	0.004692
-56.200000	-0.022846	-1.873333	1.850487	0.005197 	0.004696
-56.100000	-0.022784	-1.870000	1.847216	0.005331 	0.004701
-56.000000	-0.022722	-1.866667	1.843945	0.005466 	0.004705
-55.900000	-0.022658	-1.863333	1.840675	0.005600 	0.004709
-55.800000	-0.022593	-1.860000	1.837407	0.005736 	0.004713
-55.700000	-0.022528	-1.856667	1.834139	0.005871 	0.004717
-55.600000	-0.022462	-1.853333	1.830871	0.006007 	0.004722
-55.500000	-0.022395	-1.850000	1.827605	0.006143 	0.004726
-55.400000	-0.022326	-1.846667	1.824341	0.006280 	0.004730
-55.300000	-0.022258	-1.843333	1.821075	0.006416 	0.004734
-55.200000	-0.022188	-1.840000	1.817812	0.006553 	0.004739
-55.100000	-0.022117	-1.836667	1.814550	0.006691 	0.004743
-55.000000	-0.022045	-1.833333	1.811288	0.006828 	0.004747
-54.900000	-0.021973	-1.830000	1.808027	0.006966 	0.004751
-54.800000	-0.021899	-1.826667	1.804768	0.007104 	0.004756
-54.700000	-0.021825	-1.823333	1.801508	0.007243 	0.004760
-54.600000	-0.021750	-1.820000	1.798250	0.007381 	0.004764
-54.500000	-0.021674	-1.816667	1.794993	0.007520 	0.004769
-54.400000	-0.021597	-1.813333	1.791736	0.007659 	0.004773
-54.300000	-0.021519	-1.810000	1.788481	0.007799 	0.004777
-54.200000	-0.021440	-1.806667	1.785227	0.007939 	0.004782
-54.100000	-0.021360	-1.803333	1.781973	0.008078 	0.004786
-54.000000	-0.021280	-1.800000	1.778720	0.008219 	0.004790
-53.900000	-0.021198	-1.796667	1.775469	0.008359 	0.004795
-53.800000	-0.021116	-1.793333	1.772217	0.008499 	0.004799
-53.700000	-0.021033	-1.790000	1.768967	0.008640 	0.004803
-53.600000	-0.020948	-1.786667	1.765719	0.008781 	0.004808
-53.500000	-0.020863	-1.783333	1.762470	0.008922 	0.004812
-53.400000	-0.020777	-1.780000	1.759223	0.009064 	0.004817
-53.300000	-0.020690	-1.776667	1.755977	0.009205 	0.004821
-53.200000	-0.020603	-1.773333	1.752730	0.009347 	0.004826
-53.100000	-0.020514	-1.770000	1.749486	0.009489 	0.004830
-53.000000	-0.020424	-1.766667	1.746243	0.009631 	0.004835
-52.900000	-0.020334	-1.763333	1.742999	0.009773 	0.004839
-52.800000	-0.020242	-1.760000	1.739758	0.009916 	0.004844
-52.700000	-0.020150	-1.756667	1.736517	0.010058 	0.004848
-52.600000	-0.020057	-1.753333	1.733276	0.010201 	0.004853
-52.500000	-0.019962	-1.750000	1.730038	0.010344 	0.004857
-52.400000	-0.019867	-1.746667	1.726800	0.010487 	0.004862
-52.300000	-0.019771	-1.743333	1.723562	0.010630 	0.004866
-52.200000	-0.019674	-1.740000	1.720326	0.010773 	0.004871
-52.100000	-0.019577	-1.736667	1.717090	0.010916 	0.004876
-52.000000	-0.019478	-1.733333	1.713855	0.011060 	0.004880
-51.900000	-0.019378	-1.730000	1.710622	0.011203 	0.004885
-51.800000	-0.019278	-1.726667	1.707389	0.011347 	0.004889
-51.700000	-0.019176	-1.723333	1.704157	0.011490 	0.004894
-51.600000	-0.019074	-1.720000	1.700926	0.011634 	0.004899
-51.500000	-0.018970	-1.716667	1.697697	0.011778 	0.004903
-51.400000	-0.018866	-1.713333	1.694467	0.011921 	0.004908
-51.300000	-0.018761	-1.710000	1.691239	0.012065 	0.004913
-51.200000	-0.018655	-1.706667	1.688012	0.012209 	0.004917
-51.100000	-0.018548	-1.703333	1.684785	0.012353 	0.004922
-51.000000	-0.018440	-1.700000	1.681560	0.012497 	0.004927
-50.900000	-0.018331	-1.696667	1.678336	0.012641 	0.004931
-50.800000	-0.018222	-1.693333	1.675111	0.012785 	0.004936
-50.700000	-0.018111	-1.690000	1.671889	0.012929 	0.004941
-50.600000	-0.017999	-1.686667	1.668668	0.013073 	0.004946
-50.500000	-0.017887	-1.683333	1.665446	0.013216 	0.004951
-50.400000	-0.017773	-1.680000	1.662227	0.013360 	0.004955
-50.300000	-0.017659	-1.676667	1.659008	0.013504 	0.004960
-50.200000	-0.017543	-1.673333	1.655790	0.013648 	0.004965
-50.100000	-0.017427	-1.670000	1.652573	0.013791 	0.004970
-50.000000	-0.017310	-1.666667	1.649357	0.013935 	0.004975