VARIABLES = X,Ksi,B,H,U,tau 
ZONE T="Time 25.000000", I=1100, DATAPACKING=POINT
-100.000000	-0.004291	-3.333333	3.329042	-0.006974 	0.003502
-99.900000	-0.007097	-3.330000	3.322903	-0.001980 	0.003505
-99.800000	-0.005741	-3.326667	3.320926	-0.004131 	0.003506
-99.700000	-0.006166	-3.323333	3.317167	-0.003222 	0.003508
-99.600000	-0.005828	-3.320000	3.314172	-0.003623 	0.003509
-99.500000	-0.005816	-3.316667	3.310851	-0.003463 	0.003511
-99.400000	-0.005664	-3.313333	3.307669	-0.003543 	0.003513
-99.300000	-0.005572	-3.310000	3.304428	-0.003520 	0.003515
-99.200000	-0.005454	-3.306667	3.301213	-0.003542 	0.003516
-99.100000	-0.005347	-3.303333	3.297986	-0.003544 	0.003518
-99.000000	-0.005235	-3.300000	3.294765	-0.003554 	0.003520
-98.900000	-0.005125	-3.296667	3.291542	-0.003561 	0.003521
-98.800000	-0.005013	-3.293333	3.288320	-0.003569 	0.003523
-98.700000	-0.004902	-3.290000	3.285098	-0.003576 	0.003525
-98.600000	-0.004790	-3.286667	3.281877	-0.003584 	0.003527
-98.500000	-0.004679	-3.283333	3.278654	-0.003592 	0.003528
-98.400000	-0.004567	-3.280000	3.275433	-0.003599 	0.003530
-98.300000	-0.004454	-3.276667	3.272213	-0.003606 	0.003532
-98.200000	-0.004342	-3.273333	3.268991	-0.003614 	0.003534
-98.100000	-0.004229	-3.270000	3.265771	-0.003621 	0.003535
-98.000000	-0.004116	-3.266667	3.262551	-0.003628 	0.003537
-97.900000	-0.004003	-3.263333	3.259330	-0.003635 	0.003539
-97.800000	-0.003890	-3.260000	3.256110	-0.003641 	0.003541
-97.700000	-0.003777	-3.256667	3.252890	-0.003648 	0.003542
-97.600000	-0.003663	-3.253333	3.249670	-0.003655 	0.003544
-97.500000	-0.003549	-3.250000	3.246451	-0.003662 	0.003546
-97.400000	-0.003435	-3.246667	3.243232	-0.003668 	0.003548
-97.300000	-0.003321	-3.243333	3.240012	-0.003675 	0.003549
-97.200000	-0.003207	-3.240000	3.236793	-0.003682 	0.003551
-97.100000	-0.003092	-3.236667	3.233575	-0.003688 	0.003553
-97.000000	-0.002977	-3.233333	3.230356	-0.003694 	0.003555
-96.900000	-0.002862	-3.230000	3.227138	-0.003701 	0.003556
-96.800000	-0.002747	-3.226667	3.223920	-0.003707 	0.003558
-96.700000	-0.002632	-3.223333	3.220701	-0.003713 	0.003560
-96.600000	-0.002516	-3.220000	3.217484	-0.003719 	0.003562
-96.500000	-0.002401	-3.216667	3.214266	-0.003725 	0.003563
-96.400000	-0.002285	-3.213333	3.211048	-0.003731 	0.003565
-96.300000	-0.002169	-3.210000	3.207831	-0.003736 	0.003567
-96.200000	-0.002053	-3.206667	3.204614	-0.003742 	0.003569
-96.100000	-0.001936	-3.203333	3.201397	-0.003748 	0.003571
-96.000000	-0.001820	-3.200000	3.198180	-0.003753 	0.003572
-95.900000	-0.001703	-3.196667	3.194964	-0.003758 	0.003574
-95.800000	-0.001586	-3.193333	3.191747	-0.003764 	0.003576
-95.700000	-0.001469	-3.190000	3.188531	-0.003769 	0.003578
-95.600000	-0.001352	-3.186667	3.185315	-0.003774 	0.003580
-95.500000	-0.001234	-3.183333	3.182099	-0.003779 	0.003581
-95.400000	-0.001117	-3.180000	3.178883	-0.003784 	0.003583
-95.300000	-0.000999	-3.176667	3.175668	-0.003789 	0.003585
-95.200000	-0.000881	-3.173333	3.172452	-0.003794 	0.003587
-95.100000	-0.000763	-3.170000	3.169237	-0.003799 	0.003589
-95.000000	-0.000645	-3.166667	3.166022	-0.003803 	0.003591
-94.900000	-0.000527	-3.163333	3.162806	-0.003808 	0.003592
-94.800000	-0.000408	-3.160000	3.159592	-0.003812 	0.003594
-94.700000	-0.000290	-3.156667	3.156377	-0.003816 	0.003596
-94.600000	-0.000171	-3.153333	3.153162	-0.003821 	0.003598
-94.500000	-0.000052	-3.150000	3.149948	-0.003825 	0.003600
-94.400000	0.000067	-3.146667	3.146734	-0.003829 	0.003602
-94.300000	0.000186	-3.143333	3.143519	-0.003833 	0.003603
-94.200000	0.000305	-3.140000	3.140305	-0.003837 	0.003605
-94.100000	0.000425	-3.136667	3.137092	-0.003841 	0.003607
-94.000000	0.000544	-3.133333	3.133877	-0.003844 	0.003609
-93.900000	0.000664	-3.130000	3.130664	-0.003848 	0.003611
-93.800000	0.000783	-3.126667	3.127450	-0.003852 	0.003613
-93.700000	0.000903	-3.123333	3.124236	-0.003855 	0.003614
-93.600000	0.001023	-3.120000	3.121023	-0.003859 	0.003616
-93.500000	0.001143	-3.116667	3.117810	-0.003862 	0.003618
-93.400000	0.001264	-3.113333	3.114597	-0.003865 	0.003620
-93.300000	0.001384	-3.110000	3.111384	-0.003869 	0.003622
-93.200000	0.001504	-3.106667	3.108171	-0.003872 	0.003624
-93.100000	0.001625	-3.103333	3.104958	-0.003875 	0.003626
-93.000000	0.001745	-3.100000	3.101745	-0.003878 	0.003628
-92.900000	0.001866	-3.096667	3.098533	-0.003881 	0.003629
-92.800000	0.001987	-3.093333	3.095320	-0.003883 	0.003631
-92.700000	0.002108	-3.090000	3.092108	-0.003886 	0.003633
-92.600000	0.002229	-3.086667	3.088896	-0.003888 	0.003635
-92.500000	0.002350	-3.083333	3.085683	-0.003891 	0.003637
-92.400000	0.002472	-3.080000	3.082472	-0.003893 	0.003639
-92.300000	0.002593	-3.076667	3.079260	-0.003895 	0.003641
-92.200000	0.002714	-3.073333	3.076047	-0.003897 	0.003643
-92.100000	0.002836	-3.070000	3.072836	-0.003899 	0.003645
-92.000000	0.002958	-3.066667	3.069625	-0.003901 	0.003646
-91.900000	0.003079	-3.063333	3.066412	-0.003903 	0.003648
-91.800000	0.003201	-3.060000	3.063201	-0.003905 	0.003650
-91.700000	0.003323	-3.056667	3.059990	-0.003906 	0.003652
-91.600000	0.003445	-3.053333	3.056778	-0.003908 	0.003654
-91.500000	0.003567	-3.050000	3.053567	-0.003909 	0.003656
-91.400000	0.003689	-3.046667	3.050356	-0.003911 	0.003658
-91.300000	0.003811	-3.043333	3.047144	-0.003912 	0.003660
-91.200000	0.003934	-3.040000	3.043934	-0.003913 	0.003662
-91.100000	0.004056	-3.036667	3.040723	-0.003914 	0.003664
-91.000000	0.004178	-3.033333	3.037511	-0.003915 	0.003666
-90.900000	0.004301	-3.030000	3.034301	-0.003916 	0.003668
-90.800000	0.004423	-3.026667	3.031090	-0.003917 	0.003670
-90.700000	0.004546	-3.023333	3.027879	-0.003917 	0.003672
-90.600000	0.004669	-3.020000	3.024669	-0.003918 	0.003673
-90.500000	0.004791	-3.016667	3.021458	-0.003918 	0.003675
-90.400000	0.004914	-3.013333	3.018247	-0.003918 	0.003677
-90.300000	0.005037	-3.010000	3.015037	-0.003919 	0.003679
-90.200000	0.005160	-3.006667	3.011827	-0.003919 	0.003681
-90.100000	0.005283	-3.003333	3.008616	-0.003919 	0.003683
-90.000000	0.005405	-3.000000	3.005405	-0.003918 	0.003685
-89.900000	0.005528	-2.996667	3.002195	-0.003918 	0.003687
-89.800000	0.005651	-2.993333	2.998984	-0.003918 	0.003689
-89.700000	0.005774	-2.990000	2.995774	-0.003918 	0.003691
-89.600000	0.005898	-2.986667	2.992565	-0.003917 	0.003693
-89.500000	0.006021	-2.983333	2.989354	-0.003916 	0.003695
-89.400000	0.006144	-2.980000	2.986144	-0.003916 	0.003697
-89.300000	0.006267	-2.976667	2.982934	-0.003915 	0.003699
-89.200000	0.006390	-2.973333	2.979723	-0.003914 	0.003701
-89.100000	0.006513	-2.970000	2.976513	-0.003913 	0.003703
-89.000000	0.006636	-2.966667	2.973303	-0.003912 	0.003705
-88.900000	0.006760	-2.963333	2.970093	-0.003910 	0.003707
-88.800000	0.006883	-2.960000	2.966883	-0.003909 	0.003709
-88.700000	0.007006	-2.956667	2.963673	-0.003907 	0.003711
-88.600000	0.007129	-2.953333	2.960462	-0.003906 	0.003713
-88.500000	0.007253	-2.950000	2.957253	-0.003904 	0.003715
-88.400000	0.007376	-2.946667	2.954043	-0.003902 	0.003717
-88.300000	0.007499	-2.943333	2.950832	-0.003900 	0.003719
-88.200000	0.007622	-2.940000	2.947622	-0.003898 	0.003721
-88.100000	0.007746	-2.936667	2.944413	-0.003896 	0.003723
-88.000000	0.007869	-2.933333	2.941202	-0.003894 	0.003725
-87.900000	0.007992	-2.930000	2.937992	-0.003891 	0.003727
-87.800000	0.008115	-2.926667	2.934782	-0.003889 	0.003729
-87.700000	0.008239	-2.923333	2.931572	-0.003886 	0.003731
-87.600000	0.008362	-2.920000	2.928362	-0.003883 	0.003733
-87.500000	0.008485	-2.916667	2.925152	-0.003881 	0.003735
-87.400000	0.008608	-2.913333	2.921941	-0.003878 	0.003738
-87.300000	0.008731	-2.910000	2.918731	-0.003875 	0.003740
-87.200000	0.008854	-2.906667	2.915521	-0.003871 	0.003742
-87.100000	0.008977	-2.903333	2.912310	-0.003868 	0.003744
-87.000000	0.009100	-2.900000	2.909100	-0.003865 	0.003746
-86.900000	0.009223	-2.896667	2.905890	-0.003861 	0.003748
-86.800000	0.009346	-2.893333	2.902679	-0.003857 	0.003750
-86.700000	0.009469	-2.890000	2.899469	-0.003854 	0.003752
-86.600000	0.009592	-2.886667	2.896259	-0.003850 	0.003754
-86.500000	0.009715	-2.883333	2.893048	-0.003846 	0.003756
-86.400000	0.009838	-2.880000	2.889838	-0.003842 	0.003758
-86.300000	0.009960	-2.876667	2.886627	-0.003837 	0.003760
-86.200000	0.010083	-2.873333	2.883416	-0.003833 	0.003762
-86.100000	0.010206	-2.870000	2.880206	-0.003829 	0.003764
-86.000000	0.010328	-2.866667	2.876995	-0.003824 	0.003767
-85.900000	0.010451	-2.863333	2.873784	-0.003819 	0.003769
-85.800000	0.010573	-2.860000	2.870573	-0.003814 	0.003771
-85.700000	0.010696	-2.856667	2.867363	-0.003809 	0.003773
-85.600000	0.010818	-2.853333	2.864151	-0.003804 	0.003775
-85.500000	0.010940	-2.850000	2.860940	-0.003799 	0.003777
-85.400000	0.011062	-2.846667	2.857729	-0.003794 	0.003779
-85.300000	0.011184	-2.843333	2.854517	-0.003788 	0.003781
-85.200000	0.011306	-2.840000	2.851306	-0.003783 	0.003784
-85.100000	0.011428	-2.836667	2.848095	-0.003777 	0.003786
-85.000000	0.011550	-2.833333	2.844883	-0.003771 	0.003788
-84.900000	0.011672	-2.830000	2.841672	-0.003765 	0.003790
-84.800000	0.011793	-2.826667	2.838460	-0.003759 	0.003792
-84.700000	0.011915	-2.823333	2.835248	-0.003753 	0.003794
-84.600000	0.012036	-2.820000	2.832036	-0.003747 	0.003796
-84.500000	0.012158	-2.816667	2.828825	-0.003740 	0.003799
-84.400000	0.012279	-2.813333	2.825612	-0.003734 	0.003801
-84.300000	0.012400	-2.810000	2.822400	-0.003727 	0.003803
-84.200000	0.012521	-2.806667	2.819188	-0.003720 	0.003805
-84.100000	0.012642	-2.803333	2.815975	-0.003714 	0.003807
-84.000000	0.012763	-2.800000	2.812763	-0.003706 	0.003809
-83.900000	0.012883	-2.796667	2.809550	-0.003699 	0.003812
-83.800000	0.013004	-2.793333	2.806337	-0.003692 	0.003814
-83.700000	0.013124	-2.790000	2.803124	-0.003685 	0.003816
-83.600000	0.013245	-2.786667	2.799912	-0.003677 	0.003818
-83.500000	0.013365	-2.783333	2.796698	-0.003669 	0.003820
-83.400000	0.013485	-2.780000	2.793485	-0.003662 	0.003822
-83.300000	0.013605	-2.776667	2.790272	-0.003654 	0.003825
-83.200000	0.013724	-2.773333	2.787057	-0.003646 	0.003827
-83.100000	0.013844	-2.770000	2.783844	-0.003637 	0.003829
-83.000000	0.013963	-2.766667	2.780630	-0.003629 	0.003831
-82.900000	0.014083	-2.763333	2.777416	-0.003621 	0.003834
-82.800000	0.014202	-2.760000	2.774202	-0.003612 	0.003836
-82.700000	0.014321	-2.756667	2.770988	-0.003603 	0.003838
-82.600000	0.014440	-2.753333	2.767773	-0.003594 	0.003840
-82.500000	0.014559	-2.750000	2.764559	-0.003585 	0.003842
-82.400000	0.014677	-2.746667	2.761344	-0.003576 	0.003845
-82.300000	0.014795	-2.743333	2.758128	-0.003567 	0.003847
-82.200000	0.014914	-2.740000	2.754914	-0.003558 	0.003849
-82.100000	0.015032	-2.736667	2.751699	-0.003548 	0.003851
-82.000000	0.015150	-2.733333	2.748483	-0.003538 	0.003854
-81.900000	0.015267	-2.730000	2.745267	-0.003529 	0.003856
-81.800000	0.015385	-2.726667	2.742052	-0.003519 	0.003858
-81.700000	0.015502	-2.723333	2.738835	-0.003509 	0.003860
-81.600000	0.015619	-2.720000	2.735619	-0.003498 	0.003863
-81.500000	0.015736	-2.716667	2.732403	-0.003488 	0.003865
-81.400000	0.015853	-2.713333	2.729186	-0.003478 	0.003867
-81.300000	0.015969	-2.710000	2.725969	-0.003467 	0.003870
-81.200000	0.016086	-2.706667	2.722753	-0.003456 	0.003872
-81.100000	0.016202	-2.703333	2.719535	-0.003445 	0.003874
-81.000000	0.016318	-2.700000	2.716318	-0.003434 	0.003876
-80.900000	0.016434	-2.696667	2.713101	-0.003423 	0.003879
-80.800000	0.016549	-2.693333	2.709882	-0.003412 	0.003881
-80.700000	0.016665	-2.690000	2.706665	-0.003400 	0.003883
-80.600000	0.016780	-2.686667	2.703447	-0.003389 	0.003886
-80.500000	0.016895	-2.683333	2.700228	-0.003377 	0.003888
-80.400000	0.017009	-2.680000	2.697009	-0.003365 	0.003890
-80.300000	0.017124	-2.676667	2.693791	-0.003353 	0.003893
-80.200000	0.017238	-2.673333	2.690571	-0.003341 	0.003895
-80.100000	0.017352	-2.670000	2.687352	-0.003329 	0.003897
-80.000000	0.017466	-2.666667	2.684133	-0.003316 	0.003900
-79.900000	0.017579	-2.663333	2.680912	-0.003304 	0.003902
-79.800000	0.017692	-2.660000	2.677692	-0.003291 	0.003904
-79.700000	0.017805	-2.656667	2.674472	-0.003278 	0.003907
-79.600000	0.017918	-2.653333	2.671251	-0.003265 	0.003909
-79.500000	0.018031	-2.650000	2.668031	-0.003252 	0.003911
-79.400000	0.018143	-2.646667	2.664810	-0.003239 	0.003914
-79.300000	0.018255	-2.643333	2.661588	-0.003225 	0.003916
-79.200000	0.018367	-2.640000	2.658367	-0.003212 	0.003918
-79.100000	0.018478	-2.636667	2.655145	-0.003198 	0.003921
-79.000000	0.018589	-2.633333	2.651922	-0.003184 	0.003923
-78.900000	0.018700	-2.630000	2.648700	-0.003170 	0.003926
-78.800000	0.018811	-2.626667	2.645478	-0.003156 	0.003928
-78.700000	0.018921	-2.623333	2.642254	-0.003142 	0.003930
-78.600000	0.019031	-2.620000	2.639031	-0.003127 	0.003933
-78.500000	0.019141	-2.616667	2.635808	-0.003113 	0.003935
-78.400000	0.019251	-2.613333	2.632584	-0.003098 	0.003938
-78.300000	0.019360	-2.610000	2.629360	-0.003083 	0.003940
-78.200000	0.019469	-2.606667	2.626136	-0.003068 	0.003942
-78.100000	0.019577	-2.603333	2.622910	-0.003053 	0.003945
-78.000000	0.019686	-2.600000	2.619686	-0.003037 	0.003947
-77.900000	0.019794	-2.596667	2.616461	-0.003022 	0.003950
-77.800000	0.019901	-2.593333	2.613234	-0.003006 	0.003952
-77.700000	0.020009	-2.590000	2.610009	-0.002990 	0.003955
-77.600000	0.020116	-2.586667	2.606783	-0.002974 	0.003957
-77.500000	0.020223	-2.583333	2.603556	-0.002958 	0.003959
-77.400000	0.020329	-2.580000	2.600329	-0.002942 	0.003962
-77.300000	0.020435	-2.576667	2.597102	-0.002926 	0.003964
-77.200000	0.020541	-2.573333	2.593874	-0.002909 	0.003967
-77.100000	0.020646	-2.570000	2.590646	-0.002892 	0.003969
-77.000000	0.020751	-2.566667	2.587418	-0.002875 	0.003972
-76.900000	0.020856	-2.563333	2.584189	-0.002858 	0.003974
-76.800000	0.020961	-2.560000	2.580961	-0.002841 	0.003977
-76.700000	0.021065	-2.556667	2.577732	-0.002824 	0.003979
-76.600000	0.021168	-2.553333	2.574501	-0.002806 	0.003982
-76.500000	0.021272	-2.550000	2.571272	-0.002789 	0.003984
-76.400000	0.021375	-2.546667	2.568042	-0.002771 	0.003987
-76.300000	0.021478	-2.543333	2.564811	-0.002753 	0.003989
-76.200000	0.021580	-2.540000	2.561580	-0.002735 	0.003992
-76.100000	0.021682	-2.536667	2.558349	-0.002717 	0.003994
-76.000000	0.021783	-2.533333	2.555116	-0.002698 	0.003997
-75.900000	0.021884	-2.530000	2.551884	-0.002680 	0.003999
-75.800000	0.021985	-2.526667	2.548652	-0.002661 	0.004002
-75.700000	0.022086	-2.523333	2.545419	-0.002642 	0.004004
-75.600000	0.022186	-2.520000	2.542186	-0.002623 	0.004007
-75.500000	0.022285	-2.516667	2.538952	-0.002604 	0.004009
-75.400000	0.022385	-2.513333	2.535718	-0.002584 	0.004012
-75.300000	0.022484	-2.510000	2.532484	-0.002565 	0.004015
-75.200000	0.022582	-2.506667	2.529249	-0.002545 	0.004017
-75.100000	0.022680	-2.503333	2.526013	-0.002525 	0.004020
-75.000000	0.022778	-2.500000	2.522778	-0.002505 	0.004022
-74.900000	0.022875	-2.496667	2.519542	-0.002485 	0.004025
-74.800000	0.022972	-2.493333	2.516305	-0.002464 	0.004027
-74.700000	0.023068	-2.490000	2.513068	-0.002444 	0.004030
-74.600000	0.023164	-2.486667	2.509831	-0.002423 	0.004033
-74.500000	0.023260	-2.483333	2.506593	-0.002402 	0.004035
-74.400000	0.023355	-2.480000	2.503355	-0.002381 	0.004038
-74.300000	0.023450	-2.476667	2.500117	-0.002360 	0.004041
-74.200000	0.023544	-2.473333	2.496877	-0.002339 	0.004043
-74.100000	0.023638	-2.470000	2.493638	-0.002317 	0.004046
-74.000000	0.023731	-2.466667	2.490398	-0.002295 	0.004048
-73.900000	0.023824	-2.463333	2.487157	-0.002273 	0.004051
-73.800000	0.023916	-2.460000	2.483916	-0.002251 	0.004054
-73.700000	0.024008	-2.456667	2.480675	-0.002229 	0.004056
-73.600000	0.024100	-2.453333	2.477433	-0.002207 	0.004059
-73.500000	0.024191	-2.450000	2.474191	-0.002184 	0.004062
-73.400000	0.024282	-2.446667	2.470949	-0.002162 	0.004064
-73.300000	0.024372	-2.443333	2.467705	-0.002139 	0.004067
-73.200000	0.024462	-2.440000	2.464462	-0.002116 	0.004070
-73.100000	0.024551	-2.436667	2.461218	-0.002092 	0.004072
-73.000000	0.024640	-2.433333	2.457973	-0.002069 	0.004075
-72.900000	0.024728	-2.430000	2.454728	-0.002046 	0.004078
-72.800000	0.024816	-2.426667	2.451483	-0.002022 	0.004080
-72.700000	0.024903	-2.423333	2.448236	-0.001998 	0.004083
-72.600000	0.024990	-2.420000	2.444990	-0.001974 	0.004086
-72.500000	0.025076	-2.416667	2.441743	-0.001950 	0.004089
-72.400000	0.025162	-2.413333	2.438495	-0.001925 	0.004091
-72.300000	0.025247	-2.410000	2.435247	-0.001901 	0.004094
-72.200000	0.025332	-2.406667	2.431999	-0.001876 	0.004097
-72.100000	0.025416	-2.403333	2.428749	-0.001851 	0.004099
-72.000000	0.025500	-2.400000	2.425500	-0.001826 	0.004102
-71.900000	0.025583	-2.396667	2.422250	-0.001800 	0.004105
-71.800000	0.025666	-2.393333	2.418999	-0.001775 	0.004108
-71.700000	0.025748	-2.390000	2.415748	-0.001749 	0.004110
-71.600000	0.025830	-2.386667	2.412497	-0.001723 	0.004113
-71.500000	0.025911	-2.383333	2.409244	-0.001697 	0.004116
-71.400000	0.025991	-2.380000	2.405991	-0.001671 	0.004119
-71.300000	0.026071	-2.376667	2.402738	-0.001645 	0.004122
-71.200000	0.026151	-2.373333	2.399484	-0.001618 	0.004124
-71.100000	0.026229	-2.370000	2.396229	-0.001591 	0.004127
-71.000000	0.026308	-2.366667	2.392975	-0.001565 	0.004130
-70.900000	0.026386	-2.363333	2.389719	-0.001537 	0.004133
-70.800000	0.026463	-2.360000	2.386463	-0.001510 	0.004136
-70.700000	0.026539	-2.356667	2.383206	-0.001483 	0.004138
-70.600000	0.026615	-2.353333	2.379948	-0.001455 	0.004141
-70.500000	0.026691	-2.350000	2.376691	-0.001427 	0.004144
-70.400000	0.026766	-2.346667	2.373433	-0.001399 	0.004147
-70.300000	0.026840	-2.343333	2.370173	-0.001371 	0.004150
-70.200000	0.026914	-2.340000	2.366914	-0.001343 	0.004153
-70.100000	0.026987	-2.336667	2.363654	-0.001314 	0.004156
-70.000000	0.027060	-2.333333	2.360393	-0.001285 	0.004158
-69.900000	0.027132	-2.330000	2.357132	-0.001256 	0.004161
-69.800000	0.027203	-2.326667	2.353870	-0.001227 	0.004164
-69.700000	0.027274	-2.323333	2.350607	-0.001198 	0.004167
-69.600000	0.027344	-2.320000	2.347344	-0.001168 	0.004170
-69.500000	0.027413	-2.316667	2.344080	-0.001139 	0.004173
-69.400000	0.027482	-2.313333	2.340815	-0.001109 	0.004176
-69.300000	0.027550	-2.310000	2.337550	-0.001079 	0.004179
-69.200000	0.027618	-2.306667	2.334285	-0.001049 	0.004182
-69.100000	0.027685	-2.303333	2.331018	-0.001018 	0.004185
-69.000000	0.027751	-2.300000	2.327751	-0.000987 	0.004187
-68.900000	0.027817	-2.296667	2.324484	-0.000957 	0.004190
-68.800000	0.027882	-2.293333	2.321215	-0.000926 	0.004193
-68.700000	0.027946	-2.290000	2.317946	-0.000894 	0.004196
-68.600000	0.028010	-2.286667	2.314677	-0.000863 	0.004199
-68.500000	0.028073	-2.283333	2.311406	-0.000831 	0.004202
-68.400000	0.028136	-2.280000	2.308136	-0.000800 	0.004205
-68.300000	0.028197	-2.276667	2.304864	-0.000768 	0.004208
-68.200000	0.028258	-2.273333	2.301591	-0.000735 	0.004211
-68.100000	0.028319	-2.270000	2.298319	-0.000703 	0.004214
-68.000000	0.028379	-2.266667	2.295046	-0.000670 	0.004217
-67.900000	0.028438	-2.263333	2.291771	-0.000638 	0.004220
-67.800000	0.028496	-2.260000	2.288496	-0.000605 	0.004223
-67.700000	0.028554	-2.256667	2.285221	-0.000572 	0.004226
-67.600000	0.028611	-2.253333	2.281944	-0.000538 	0.004229
-67.500000	0.028667	-2.250000	2.278667	-0.000505 	0.004232
-67.400000	0.028723	-2.246667	2.275390	-0.000471 	0.004235
-67.300000	0.028777	-2.243333	2.272110	-0.000437 	0.004238
-67.200000	0.028832	-2.240000	2.268832	-0.000403 	0.004241
-67.100000	0.028885	-2.236667	2.265552	-0.000368 	0.004245
-67.000000	0.028938	-2.233333	2.262271	-0.000334 	0.004248
-66.900000	0.028990	-2.230000	2.258990	-0.000299 	0.004251
-66.800000	0.029041	-2.226667	2.255708	-0.000264 	0.004254
-66.700000	0.029092	-2.223333	2.252425	-0.000229 	0.004257
-66.600000	0.029141	-2.220000	2.249141	-0.000193 	0.004260
-66.500000	0.029190	-2.216667	2.245857	-0.000157 	0.004263
-66.400000	0.029239	-2.213333	2.242572	-0.000122 	0.004266
-66.300000	0.029286	-2.210000	2.239286	-0.000086 	0.004269
-66.200000	0.029333	-2.206667	2.236000	-0.000049 	0.004272
-66.100000	0.029379	-2.203333	2.232712	-0.000013 	0.004276
-66.000000	0.029424	-2.200000	2.229424	0.000024 	0.004279
-65.900000	0.029469	-2.196667	2.226136	0.000061 	0.004282
-65.800000	0.029513	-2.193333	2.222846	0.000098 	0.004285
-65.700000	0.029555	-2.190000	2.219555	0.000135 	0.004288
-65.600000	0.029598	-2.186667	2.216265	0.000173 	0.004291
-65.500000	0.029639	-2.183333	2.212972	0.000211 	0.004295
-65.400000	0.029680	-2.180000	2.209680	0.000249 	0.004298
-65.300000	0.029719	-2.176667	2.206386	0.000287 	0.004301
-65.200000	0.029758	-2.173333	2.203091	0.000325 	0.004304
-65.100000	0.029796	-2.170000	2.199796	0.000364 	0.004308
-65.000000	0.029834	-2.166667	2.196501	0.000403 	0.004311
-64.900000	0.029870	-2.163333	2.193203	0.000442 	0.004314
-64.800000	0.029906	-2.160000	2.189906	0.000482 	0.004317
-64.700000	0.029941	-2.156667	2.186608	0.000521 	0.004320
-64.600000	0.029975	-2.153333	2.183308	0.000561 	0.004324
-64.500000	0.030008	-2.150000	2.180008	0.000601 	0.004327
-64.400000	0.030041	-2.146667	2.176708	0.000642 	0.004330
-64.300000	0.030072	-2.143333	2.173405	0.000682 	0.004334
-64.200000	0.030103	-2.140000	2.170103	0.000723 	0.004337
-64.100000	0.030133	-2.136667	2.166800	0.000764 	0.004340
-64.000000	0.030162	-2.133333	2.163495	0.000805 	0.004343
-63.900000	0.030190	-2.130000	2.160190	0.000847 	0.004347
-63.800000	0.030217	-2.126667	2.156884	0.000889 	0.004350
-63.700000	0.030243	-2.123333	2.153576	0.000931 	0.004353
-63.600000	0.030269	-2.120000	2.150269	0.000973 	0.004357
-63.500000	0.030293	-2.116667	2.146960	0.001016 	0.004360
-63.400000	0.030317	-2.113333	2.143650	0.001059 	0.004364
-63.300000	0.030340	-2.110000	2.140340	0.001102 	0.004367
-63.200000	0.030362	-2.106667	2.137029	0.001145 	0.004370
-63.100000	0.030383	-2.103333	2.133716	0.001189 	0.004374
-63.000000	0.030403	-2.100000	2.130403	0.001233 	0.004377
-62.900000	0.030422	-2.096667	2.127089	0.001277 	0.004381
-62.800000	0.030440	-2.093333	2.123773	0.001322 	0.004384
-62.700000	0.030458	-2.090000	2.120458	0.001366 	0.004387
-62.600000	0.030474	-2.086667	2.117141	0.001411 	0.004391
-62.500000	0.030490	-2.083333	2.113823	0.001457 	0.004394
-62.400000	0.030504	-2.080000	2.110504	0.001502 	0.004398
-62.300000	0.030518	-2.076667	2.107185	0.001548 	0.004401
-62.200000	0.030530	-2.073333	2.103863	0.001595 	0.004405
-62.100000	0.030542	-2.070000	2.100542	0.001641 	0.004408
-62.000000	0.030553	-2.066667	2.097220	0.001688 	0.004412
-61.900000	0.030562	-2.063333	2.093895	0.001735 	0.004415
-61.800000	0.030571	-2.060000	2.090571	0.001783 	0.004419
-61.700000	0.030579	-2.056667	2.087246	0.001830 	0.004422
-61.600000	0.030586	-2.053333	2.083919	0.001879 	0.004426
-61.500000	0.030591	-2.050000	2.080591	0.001927 	0.004429
-61.400000	0.030596	-2.046667	2.077263	0.001976 	0.004433
-61.300000	0.030600	-2.043333	2.073933	0.002025 	0.004436
-61.200000	0.030603	-2.040000	2.070603	0.002074 	0.004440
-61.100000	0.030604	-2.036667	2.067271	0.002124 	0.004443
-61.000000	0.030605	-2.033333	2.063938	0.002174 	0.004447
-60.900000	0.030605	-2.030000	2.060605	0.002225 	0.004451
-60.800000	0.030603	-2.026667	2.057270	0.002275 	0.004454
-60.700000	0.030601	-2.023333	2.053934	0.002327 	0.004458
-60.600000	0.030598	-2.020000	2.050598	0.002378 	0.004461
-60.500000	0.030593	-2.016667	2.047260	0.002430 	0.004465
-60.400000	0.030588	-2.013333	2.043921	0.002482 	0.004469
-60.300000	0.030581	-2.010000	2.040581	0.002535 	0.004472
-60.200000	0.030573	-2.006667	2.037240	0.002588 	0.004476
-60.100000	0.030565	-2.003333	2.033898	0.002641 	0.004480
-60.000000	0.030555	-2.000000	2.030555	0.002695 	0.004483
-59.900000	0.030544	-1.996667	2.027211	0.002749 	0.004487
-59.800000	0.030532	-1.993333	2.023865	0.002804 	0.004491
-59.700000	0.030519	-1.990000	2.020519	0.002859 	0.004495
-59.600000	0.030505	-1.986667	2.017172	0.002914 	0.004498
-59.500000	0.030490	-1.983333	2.013823	0.002970 	0.004502
-59.400000	0.030473	-1.980000	2.010473	0.003026 	0.004506
-59.300000	0.030456	-1.976667	2.007123	0.003082 	0.004510
-59.200000	0.030437	-1.973333	2.003770	0.003139 	0.004513
-59.100000	0.030417	-1.970000	2.000417	0.003197 	0.004517
-59.000000	0.030396	-1.966667	1.997063	0.003254 	0.004521
-58.900000	0.030374	-1.963333	1.993707	0.003313 	0.004525
-58.800000	0.030351	-1.960000	1.990351	0.003371 	0.004528
-58.700000	0.030327	-1.956667	1.986994	0.003430 	0.004532
-58.600000	0.030302	-1.953333	1.983635	0.003490 	0.004536
-58.500000	0.030275	-1.950000	1.980275	0.003550 	0.004540
-58.400000	0.030247	-1.946667	1.976914	0.003610 	0.004544
-58.300000	0.030218	-1.943333	1.973551	0.003671 	0.004548
-58.200000	0.030188	-1.940000	1.970188	0.003732 	0.004552
-58.100000	0.030157	-1.936667	1.966824	0.003794 	0.004555
-58.000000	0.030125	-1.933333	1.963458	0.003856 	0.004559
-57.900000	0.030091	-1.930000	1.960091	0.003918 	0.004563
-57.800000	0.030056	-1.926667	1.956723	0.003981 	0.004567
-57.700000	0.030020	-1.923333	1.953353	0.004044 	0.004571
-57.600000	0.029983	-1.920000	1.949983	0.004108 	0.004575
-57.500000	0.029945	-1.916667	1.946612	0.004172 	0.004579
-57.400000	0.029905	-1.913333	1.943238	0.004237 	0.004583
-57.300000	0.029864	-1.910000	1.939864	0.004302 	0.004587
-57.200000	0.029822	-1.906667	1.936489	0.004368 	0.004591
-57.100000	0.029779	-1.903333	1.933112	0.004434 	0.004595
-57.000000	0.029735	-1.900000	1.929735	0.004500 	0.004599
-56.900000	0.029689	-1.896667	1.926356	0.004567 	0.004603
-56.800000	0.029643	-1.893333	1.922976	0.004635 	0.004607
-56.700000	0.029595	-1.890000	1.919595	0.004702 	0.004611
-56.600000	0.029545	-1.886667	1.916212	0.004770 	0.004615
-56.500000	0.029495	-1.883333	1.912828	0.004839 	0.004619
-56.400000	0.029443	-1.880000	1.909443	0.004908 	0.004623
-56.300000	0.029390	-1.876667	1.906057	0.004978 	0.004628
-56.200000	0.029336	-1.873333	1.902669	0.005048 	0.004632
-56.100000	0.029281	-1.870000	1.899281	0.005118 	0.004636
-56.000000	0.029224	-1.866667	1.895891	0.005189 	0.004640
-55.900000	0.029166	-1.863333	1.892499	0.005260 	0.004644
-55.800000	0.029107	-1.860000	1.889107	0.005331 	0.004648
-55.700000	0.029047	-1.856667	1.885714	0.005403 	0.004652
-55.600000	0.028985	-1.853333	1.882318	0.005476 	0.004657
-55.500000	0.028923	-1.850000	1.878923	0.005548 	0.004661
-55.400000	0.028859	-1.846667	1.875526	0.005622 	0.004665
-55.300000	0.028793	-1.843333	1.872126	0.005695 	0.004669
-55.200000	0.028727	-1.840000	1.868727	0.005769 	0.004674
-55.100000	0.028659	-1.836667	1.865326	0.005843 	0.004678
-55.000000	0.028590	-1.833333	1.861923	0.005918 	0.004682
-54.900000	0.028520	-1.830000	1.858520	0.005993 	0.004686
-54.800000	0.028448	-1.826667	1.855115	0.006068 	0.004691
-54.700000	0.028375	-1.823333	1.851708	0.006144 	0.004695
-54.600000	0.028301	-1.820000	1.848301	0.006220 	0.004699
-54.500000	0.028226	-1.816667	1.844893	0.006297 	0.004704
-54.400000	0.028150	-1.813333	1.841483	0.006373 	0.004708
-54.300000	0.028072	-1.810000	1.838072	0.006450 	0.004712
-54.200000	0.027993	-1.806667	1.834660	0.006528 	0.004717
-54.100000	0.027913	-1.803333	1.831246	0.006606 	0.004721
-54.000000	0.027831	-1.800000	1.827831	0.006684 	0.004726
-53.900000	0.027748	-1.796667	1.824415	0.006762 	0.004730
-53.800000	0.027664	-1.793333	1.820997	0.006840 	0.004734
-53.700000	0.027579	-1.790000	1.817579	0.006919 	0.004739
-53.600000	0.027493	-1.786667	1.814160	0.006999 	0.004743
-53.500000	0.027405	-1.783333	1.810738	0.007078 	0.004748
-53.400000	0.027316	-1.780000	1.807316	0.007158 	0.004752
-53.300000	0.027226	-1.776667	1.803893	0.007238 	0.004757
-53.200000	0.027134	-1.773333	1.800467	0.007318 	0.004761
-53.100000	0.027041	-1.770000	1.797041	0.007398 	0.004766
-53.000000	0.026947	-1.766667	1.793614	0.007479 	0.004770
-52.900000	0.026852	-1.763333	1.790185	0.007560 	0.004775
-52.800000	0.026756	-1.760000	1.786756	0.007641 	0.004780
-52.700000	0.026658	-1.756667	1.783325	0.007722 	0.004784
-52.600000	0.026559	-1.753333	1.779892	0.007803 	0.004789
-52.500000	0.026459	-1.750000	1.776459	0.007885 	0.004793
-52.400000	0.026357	-1.746667	1.773024	0.007967 	0.004798
-52.300000	0.026255	-1.743333	1.769588	0.008049 	0.004803
-52.200000	0.026151	-1.740000	1.766151	0.008131 	0.004807
-52.100000	0.026046	-1.736667	1.762713	0.008213 	0.004812
-52.000000	0.025939	-1.733333	1.759272	0.008296 	0.004817
-51.900000	0.025832	-1.730000	1.755832	0.008378 	0.004821
-51.800000	0.025723	-1.726667	1.752390	0.008461 	0.004826
-51.700000	0.025613	-1.723333	1.748946	0.008544 	0.004831
-51.600000	0.025501	-1.720000	1.745501	0.008627 	0.004836
-51.500000	0.025389	-1.716667	1.742056	0.008710 	0.004840
-51.400000	0.025275	-1.713333	1.738608	0.008793 	0.004845
-51.300000	0.025160	-1.710000	1.735160	0.008876 	0.004850
-51.200000	0.025044	-1.706667	1.731711	0.008959 	0.004855
-51.100000	0.024926	-1.703333	1.728259	0.009043 	0.004860
-51.000000	0.024808	-1.700000	1.724808	0.009126 	0.004865
-50.900000	0.024688	-1.696667	1.721355	0.009209 	0.004869
-50.800000	0.024567	-1.693333	1.717900	0.009293 	0.004874
-50.700000	0.024444	-1.690000	1.714444	0.009376 	0.004879
-50.600000	0.024321	-1.686667	1.710988	0.009460 	0.004884
-50.500000	0.024196	-1.683333	1.707529	0.009543 	0.004889
-50.400000	0.024070	-1.680000	1.704070	0.009627 	0.004894
-50.300000	0.023942	-1.676667	1.700609	0.009710 	0.004899
-50.200000	0.023814	-1.673333	1.697147	0.009794 	0.004904
-50.100000	0.023684	-1.670000	1.693684	0.009877 	0.004909
-50.000000	0.023553	-1.666667	1.690220	0.009960 	0.004914
-49.900000	0.023421	-1.663333	1.686754	0.010044 	0.004919
-49.800000	0.023288	-1.660000	1.683288	0.010127 	0.004924
-49.700000	0.023153	-1.656667	1.679820	0.010210 	0.004929
-49.600000	0.023018	-1.653333	1.676351	0.010294 	0.004934
-49.500000	0.022881	-1.650000	1.672881	0.010377 	0.004940
-49.400000	0.022742	-1.646667	1.669409	0.010460 	0.004945
-49.300000	0.022603	-1.643333	1.665936	0.010543 	0.004950
-49.200000	0.022462	-1.640000	1.662462	0.010626 	0.004955