VARIABLES = X,Ksi,B,H,U,tau 
ZONE T="Time 30.000000", I=1100, DATAPACKING=POINT
-100.000000	0.001741	-3.333333	3.335074	-0.045150 	0.003498
-99.900000	-0.001793	-3.330000	3.328207	-0.039144 	0.003502
-99.800000	-0.000259	-3.326667	3.326408	-0.041832 	0.003503
-99.700000	-0.000879	-3.323333	3.322454	-0.040823 	0.003505
-99.600000	-0.000583	-3.320000	3.319417	-0.041385 	0.003507
-99.500000	-0.000676	-3.316667	3.315991	-0.041278 	0.003508
-99.400000	-0.000604	-3.313333	3.312729	-0.041455 	0.003510
-99.300000	-0.000602	-3.310000	3.309398	-0.041510 	0.003512
-99.200000	-0.000570	-3.306667	3.306097	-0.041616 	0.003514
-99.100000	-0.000550	-3.303333	3.302783	-0.041700 	0.003515
-99.000000	-0.000526	-3.300000	3.299474	-0.041792 	0.003517
-98.900000	-0.000503	-3.296667	3.296164	-0.041879 	0.003519
-98.800000	-0.000479	-3.293333	3.292854	-0.041967 	0.003521
-98.700000	-0.000456	-3.290000	3.289544	-0.042054 	0.003522
-98.600000	-0.000433	-3.286667	3.286234	-0.042141 	0.003524
-98.500000	-0.000409	-3.283333	3.282924	-0.042227 	0.003526
-98.400000	-0.000385	-3.280000	3.279615	-0.042312 	0.003528
-98.300000	-0.000362	-3.276667	3.276305	-0.042396 	0.003530
-98.200000	-0.000338	-3.273333	3.272995	-0.042480 	0.003531
-98.100000	-0.000314	-3.270000	3.269686	-0.042563 	0.003533
-98.000000	-0.000290	-3.266667	3.266377	-0.042645 	0.003535
-97.900000	-0.000266	-3.263333	3.263067	-0.042726 	0.003537
-97.800000	-0.000242	-3.260000	3.259758	-0.042807 	0.003539
-97.700000	-0.000218	-3.256667	3.256449	-0.042887 	0.003540
-97.600000	-0.000194	-3.253333	3.253139	-0.042966 	0.003542
-97.500000	-0.000170	-3.250000	3.249830	-0.043045 	0.003544
-97.400000	-0.000146	-3.246667	3.246521	-0.043123 	0.003546
-97.300000	-0.000121	-3.243333	3.243212	-0.043200 	0.003548
-97.200000	-0.000097	-3.240000	3.239903	-0.043276 	0.003549
-97.100000	-0.000072	-3.236667	3.236595	-0.043352 	0.003551
-97.000000	-0.000048	-3.233333	3.233285	-0.043427 	0.003553
-96.900000	-0.000023	-3.230000	3.229977	-0.043501 	0.003555
-96.800000	0.000001	-3.226667	3.226668	-0.043574 	0.003557
-96.700000	0.000026	-3.223333	3.223359	-0.043647 	0.003558
-96.600000	0.000051	-3.220000	3.220051	-0.043719 	0.003560
-96.500000	0.000075	-3.216667	3.216742	-0.043790 	0.003562
-96.400000	0.000100	-3.213333	3.213433	-0.043860 	0.003564
-96.300000	0.000125	-3.210000	3.210125	-0.043929 	0.003566
-96.200000	0.000150	-3.206667	3.206817	-0.043998 	0.003568
-96.100000	0.000175	-3.203333	3.203508	-0.044066 	0.003569
-96.000000	0.000200	-3.200000	3.200200	-0.044133 	0.003571
-95.900000	0.000225	-3.196667	3.196892	-0.044199 	0.003573
-95.800000	0.000250	-3.193333	3.193583	-0.044264 	0.003575
-95.700000	0.000276	-3.190000	3.190276	-0.044329 	0.003577
-95.600000	0.000301	-3.186667	3.186968	-0.044393 	0.003579
-95.500000	0.000326	-3.183333	3.183659	-0.044456 	0.003581
-95.400000	0.000351	-3.180000	3.180351	-0.044518 	0.003582
-95.300000	0.000377	-3.176667	3.177044	-0.044580 	0.003584
-95.200000	0.000402	-3.173333	3.173735	-0.044640 	0.003586
-95.100000	0.000428	-3.170000	3.170428	-0.044700 	0.003588
-95.000000	0.000453	-3.166667	3.167120	-0.044759 	0.003590
-94.900000	0.000479	-3.163333	3.163812	-0.044817 	0.003592
-94.800000	0.000504	-3.160000	3.160504	-0.044874 	0.003594
-94.700000	0.000530	-3.156667	3.157197	-0.044931 	0.003596
-94.600000	0.000556	-3.153333	3.153889	-0.044986 	0.003597
-94.500000	0.000582	-3.150000	3.150582	-0.045041 	0.003599
-94.400000	0.000607	-3.146667	3.147274	-0.045095 	0.003601
-94.300000	0.000633	-3.143333	3.143966	-0.045148 	0.003603
-94.200000	0.000659	-3.140000	3.140659	-0.045200 	0.003605
-94.100000	0.000685	-3.136667	3.137352	-0.045251 	0.003607
-94.000000	0.000711	-3.133333	3.134044	-0.045302 	0.003609
-93.900000	0.000737	-3.130000	3.130737	-0.045351 	0.003611
-93.800000	0.000763	-3.126667	3.127430	-0.045400 	0.003613
-93.700000	0.000789	-3.123333	3.124122	-0.045448 	0.003615
-93.600000	0.000815	-3.120000	3.120815	-0.045494 	0.003616
-93.500000	0.000841	-3.116667	3.117508	-0.045540 	0.003618
-93.400000	0.000867	-3.113333	3.114200	-0.045586 	0.003620
-93.300000	0.000893	-3.110000	3.110893	-0.045630 	0.003622
-93.200000	0.000920	-3.106667	3.107587	-0.045673 	0.003624
-93.100000	0.000946	-3.103333	3.104279	-0.045715 	0.003626
-93.000000	0.000972	-3.100000	3.100972	-0.045757 	0.003628
-92.900000	0.000998	-3.096667	3.097665	-0.045797 	0.003630
-92.800000	0.001025	-3.093333	3.094358	-0.045837 	0.003632
-92.700000	0.001051	-3.090000	3.091051	-0.045876 	0.003634
-92.600000	0.001077	-3.086667	3.087744	-0.045913 	0.003636
-92.500000	0.001104	-3.083333	3.084437	-0.045950 	0.003638
-92.400000	0.001130	-3.080000	3.081130	-0.045986 	0.003640
-92.300000	0.001157	-3.076667	3.077824	-0.046021 	0.003642
-92.200000	0.001183	-3.073333	3.074516	-0.046055 	0.003644
-92.100000	0.001210	-3.070000	3.071210	-0.046088 	0.003646
-92.000000	0.001236	-3.066667	3.067903	-0.046120 	0.003648
-91.900000	0.001263	-3.063333	3.064596	-0.046151 	0.003649
-91.800000	0.001289	-3.060000	3.061289	-0.046182 	0.003651
-91.700000	0.001316	-3.056667	3.057983	-0.046211 	0.003653
-91.600000	0.001342	-3.053333	3.054675	-0.046239 	0.003655
-91.500000	0.001369	-3.050000	3.051369	-0.046266 	0.003657
-91.400000	0.001396	-3.046667	3.048063	-0.046293 	0.003659
-91.300000	0.001422	-3.043333	3.044755	-0.046318 	0.003661
-91.200000	0.001449	-3.040000	3.041449	-0.046342 	0.003663
-91.100000	0.001476	-3.036667	3.038143	-0.046366 	0.003665
-91.000000	0.001502	-3.033333	3.034835	-0.046388 	0.003667
-90.900000	0.001529	-3.030000	3.031529	-0.046409 	0.003669
-90.800000	0.001555	-3.026667	3.028222	-0.046430 	0.003671
-90.700000	0.001582	-3.023333	3.024915	-0.046449 	0.003673
-90.600000	0.001609	-3.020000	3.021609	-0.046467 	0.003675
-90.500000	0.001636	-3.016667	3.018303	-0.046485 	0.003677
-90.400000	0.001662	-3.013333	3.014995	-0.046501 	0.003679
-90.300000	0.001689	-3.010000	3.011689	-0.046516 	0.003681
-90.200000	0.001716	-3.006667	3.008383	-0.046531 	0.003683
-90.100000	0.001742	-3.003333	3.005075	-0.046544 	0.003685
-90.000000	0.001769	-3.000000	3.001769	-0.046556 	0.003687
-89.900000	0.001796	-2.996667	2.998463	-0.046567 	0.003690
-89.800000	0.001822	-2.993333	2.995155	-0.046577 	0.003692
-89.700000	0.001849	-2.990000	2.991849	-0.046586 	0.003694
-89.600000	0.001876	-2.986667	2.988543	-0.046594 	0.003696
-89.500000	0.001902	-2.983333	2.985235	-0.046601 	0.003698
-89.400000	0.001929	-2.980000	2.981929	-0.046607 	0.003700
-89.300000	0.001956	-2.976667	2.978623	-0.046612 	0.003702
-89.200000	0.001982	-2.973333	2.975315	-0.046615 	0.003704
-89.100000	0.002009	-2.970000	2.972009	-0.046618 	0.003706
-89.000000	0.002035	-2.966667	2.968702	-0.046620 	0.003708
-88.900000	0.002062	-2.963333	2.965395	-0.046620 	0.003710
-88.800000	0.002089	-2.960000	2.962089	-0.046619 	0.003712
-88.700000	0.002115	-2.956667	2.958782	-0.046618 	0.003714
-88.600000	0.002142	-2.953333	2.955475	-0.046615 	0.003716
-88.500000	0.002168	-2.950000	2.952168	-0.046611 	0.003718
-88.400000	0.002195	-2.946667	2.948862	-0.046606 	0.003720
-88.300000	0.002221	-2.943333	2.945554	-0.046600 	0.003722
-88.200000	0.002248	-2.940000	2.942248	-0.046592 	0.003725
-88.100000	0.002274	-2.936667	2.938941	-0.046584 	0.003727
-88.000000	0.002300	-2.933333	2.935633	-0.046574 	0.003729
-87.900000	0.002327	-2.930000	2.932327	-0.046564 	0.003731
-87.800000	0.002353	-2.926667	2.929020	-0.046552 	0.003733
-87.700000	0.002379	-2.923333	2.925712	-0.046539 	0.003735
-87.600000	0.002405	-2.920000	2.922405	-0.046525 	0.003737
-87.500000	0.002432	-2.916667	2.919099	-0.046510 	0.003739
-87.400000	0.002458	-2.913333	2.915791	-0.046493 	0.003741
-87.300000	0.002484	-2.910000	2.912484	-0.046476 	0.003744
-87.200000	0.002510	-2.906667	2.909177	-0.046457 	0.003746
-87.100000	0.002536	-2.903333	2.905869	-0.046437 	0.003748
-87.000000	0.002562	-2.900000	2.902562	-0.046416 	0.003750
-86.900000	0.002588	-2.896667	2.899255	-0.046393 	0.003752
-86.800000	0.002614	-2.893333	2.895947	-0.046370 	0.003754
-86.700000	0.002639	-2.890000	2.892639	-0.046345 	0.003756
-86.600000	0.002665	-2.886667	2.889332	-0.046319 	0.003759
-86.500000	0.002691	-2.883333	2.886024	-0.046292 	0.003761
-86.400000	0.002717	-2.880000	2.882717	-0.046264 	0.003763
-86.300000	0.002742	-2.876667	2.879409	-0.046234 	0.003765
-86.200000	0.002768	-2.873333	2.876101	-0.046204 	0.003767
-86.100000	0.002793	-2.870000	2.872793	-0.046172 	0.003769
-86.000000	0.002819	-2.866667	2.869486	-0.046139 	0.003772
-85.900000	0.002844	-2.863333	2.866177	-0.046104 	0.003774
-85.800000	0.002869	-2.860000	2.862869	-0.046068 	0.003776
-85.700000	0.002894	-2.856667	2.859561	-0.046031 	0.003778
-85.600000	0.002919	-2.853333	2.856252	-0.045993 	0.003780
-85.500000	0.002944	-2.850000	2.852944	-0.045954 	0.003782
-85.400000	0.002969	-2.846667	2.849636	-0.045913 	0.003785
-85.300000	0.002994	-2.843333	2.846327	-0.045871 	0.003787
-85.200000	0.003019	-2.840000	2.843019	-0.045828 	0.003789
-85.100000	0.003044	-2.836667	2.839711	-0.045784 	0.003791
-85.000000	0.003069	-2.833333	2.836402	-0.045738 	0.003793
-84.900000	0.003093	-2.830000	2.833093	-0.045691 	0.003796
-84.800000	0.003118	-2.826667	2.829785	-0.045642 	0.003798
-84.700000	0.003142	-2.823333	2.826475	-0.045593 	0.003800
-84.600000	0.003166	-2.820000	2.823166	-0.045542 	0.003802
-84.500000	0.003190	-2.816667	2.819857	-0.045490 	0.003805
-84.400000	0.003215	-2.813333	2.816548	-0.045436 	0.003807
-84.300000	0.003239	-2.810000	2.813239	-0.045381 	0.003809
-84.200000	0.003263	-2.806667	2.809930	-0.045325 	0.003811
-84.100000	0.003286	-2.803333	2.806619	-0.045267 	0.003814
-84.000000	0.003310	-2.800000	2.803310	-0.045209 	0.003816
-83.900000	0.003334	-2.796667	2.800001	-0.045148 	0.003818
-83.800000	0.003357	-2.793333	2.796690	-0.045087 	0.003820
-83.700000	0.003381	-2.790000	2.793381	-0.045024 	0.003823
-83.600000	0.003404	-2.786667	2.790071	-0.044960 	0.003825
-83.500000	0.003427	-2.783333	2.786760	-0.044894 	0.003827
-83.400000	0.003450	-2.780000	2.783450	-0.044827 	0.003829
-83.300000	0.003473	-2.776667	2.780140	-0.044759 	0.003832
-83.200000	0.003496	-2.773333	2.776829	-0.044689 	0.003834
-83.100000	0.003519	-2.770000	2.773519	-0.044618 	0.003836
-83.000000	0.003542	-2.766667	2.770209	-0.044546 	0.003838
-82.900000	0.003564	-2.763333	2.766897	-0.044472 	0.003841
-82.800000	0.003586	-2.760000	2.763586	-0.044397 	0.003843
-82.700000	0.003609	-2.756667	2.760276	-0.044320 	0.003845
-82.600000	0.003631	-2.753333	2.756964	-0.044242 	0.003848
-82.500000	0.003653	-2.750000	2.753653	-0.044163 	0.003850
-82.400000	0.003675	-2.746667	2.750342	-0.044082 	0.003852
-82.300000	0.003697	-2.743333	2.747030	-0.044000 	0.003855
-82.200000	0.003718	-2.740000	2.743718	-0.043917 	0.003857
-82.100000	0.003740	-2.736667	2.740407	-0.043832 	0.003859
-82.000000	0.003761	-2.733333	2.737094	-0.043745 	0.003862
-81.900000	0.003782	-2.730000	2.733782	-0.043657 	0.003864
-81.800000	0.003804	-2.726667	2.730471	-0.043568 	0.003866
-81.700000	0.003825	-2.723333	2.727158	-0.043478 	0.003869
-81.600000	0.003845	-2.720000	2.723845	-0.043385 	0.003871
-81.500000	0.003866	-2.716667	2.720533	-0.043292 	0.003873
-81.400000	0.003887	-2.713333	2.717220	-0.043197 	0.003876
-81.300000	0.003907	-2.710000	2.713907	-0.043101 	0.003878
-81.200000	0.003927	-2.706667	2.710594	-0.043003 	0.003880
-81.100000	0.003948	-2.703333	2.707281	-0.042904 	0.003883
-81.000000	0.003968	-2.700000	2.703968	-0.042803 	0.003885
-80.900000	0.003988	-2.696667	2.700655	-0.042701 	0.003888
-80.800000	0.004007	-2.693333	2.697340	-0.042597 	0.003890
-80.700000	0.004027	-2.690000	2.694027	-0.042492 	0.003892
-80.600000	0.004046	-2.686667	2.690713	-0.042386 	0.003895
-80.500000	0.004066	-2.683333	2.687399	-0.042278 	0.003897
-80.400000	0.004085	-2.680000	2.684085	-0.042168 	0.003900
-80.300000	0.004104	-2.676667	2.680771	-0.042058 	0.003902
-80.200000	0.004123	-2.673333	2.677456	-0.041945 	0.003904
-80.100000	0.004142	-2.670000	2.674142	-0.041832 	0.003907
-80.000000	0.004160	-2.666667	2.670827	-0.041716 	0.003909
-79.900000	0.004179	-2.663333	2.667512	-0.041600 	0.003912
-79.800000	0.004197	-2.660000	2.664197	-0.041481 	0.003914
-79.700000	0.004215	-2.656667	2.660882	-0.041362 	0.003917
-79.600000	0.004233	-2.653333	2.657566	-0.041241 	0.003919
-79.500000	0.004251	-2.650000	2.654251	-0.041118 	0.003921
-79.400000	0.004269	-2.646667	2.650936	-0.040994 	0.003924
-79.300000	0.004286	-2.643333	2.647619	-0.040868 	0.003926
-79.200000	0.004304	-2.640000	2.644304	-0.040741 	0.003929
-79.100000	0.004321	-2.636667	2.640988	-0.040613 	0.003931
-79.000000	0.004338	-2.633333	2.637671	-0.040483 	0.003934
-78.900000	0.004355	-2.630000	2.634355	-0.040352 	0.003936
-78.800000	0.004372	-2.626667	2.631039	-0.040219 	0.003939
-78.700000	0.004389	-2.623333	2.627722	-0.040084 	0.003941
-78.600000	0.004405	-2.620000	2.624405	-0.039948 	0.003944
-78.500000	0.004422	-2.616667	2.621089	-0.039811 	0.003946
-78.400000	0.004438	-2.613333	2.617771	-0.039672 	0.003949
-78.300000	0.004454	-2.610000	2.614454	-0.039532 	0.003951
-78.200000	0.004470	-2.606667	2.611137	-0.039390 	0.003954
-78.100000	0.004486	-2.603333	2.607819	-0.039247 	0.003956
-78.000000	0.004502	-2.600000	2.604502	-0.039102 	0.003959
-77.900000	0.004517	-2.596667	2.601184	-0.038956 	0.003961
-77.800000	0.004533	-2.593333	2.597866	-0.038808 	0.003964
-77.700000	0.004548	-2.590000	2.594548	-0.038659 	0.003966
-77.600000	0.004563	-2.586667	2.591230	-0.038508 	0.003969
-77.500000	0.004578	-2.583333	2.587911	-0.038356 	0.003971
-77.400000	0.004593	-2.580000	2.584593	-0.038203 	0.003974
-77.300000	0.004607	-2.576667	2.581274	-0.038047 	0.003976
-77.200000	0.004622	-2.573333	2.577955	-0.037891 	0.003979
-77.100000	0.004636	-2.570000	2.574636	-0.037733 	0.003982
-77.000000	0.004650	-2.566667	2.571317	-0.037573 	0.003984
-76.900000	0.004664	-2.563333	2.567997	-0.037412 	0.003987
-76.800000	0.004678	-2.560000	2.564678	-0.037250 	0.003989
-76.700000	0.004692	-2.556667	2.561359	-0.037086 	0.003992
-76.600000	0.004706	-2.553333	2.558039	-0.036920 	0.003995
-76.500000	0.004719	-2.550000	2.554719	-0.036754 	0.003997
-76.400000	0.004733	-2.546667	2.551400	-0.036585 	0.004000
-76.300000	0.004746	-2.543333	2.548079	-0.036415 	0.004002
-76.200000	0.004759	-2.540000	2.544759	-0.036244 	0.004005
-76.100000	0.004772	-2.536667	2.541439	-0.036071 	0.004008
-76.000000	0.004785	-2.533333	2.538118	-0.035897 	0.004010
-75.900000	0.004798	-2.530000	2.534798	-0.035722 	0.004013
-75.800000	0.004810	-2.526667	2.531477	-0.035544 	0.004015
-75.700000	0.004823	-2.523333	2.528156	-0.035366 	0.004018
-75.600000	0.004835	-2.520000	2.524835	-0.035186 	0.004021
-75.500000	0.004847	-2.516667	2.521514	-0.035004 	0.004023
-75.400000	0.004859	-2.513333	2.518192	-0.034821 	0.004026
-75.300000	0.004871	-2.510000	2.514871	-0.034637 	0.004029
-75.200000	0.004883	-2.506667	2.511550	-0.034451 	0.004031
-75.100000	0.004894	-2.503333	2.508227	-0.034264 	0.004034
-75.000000	0.004906	-2.500000	2.504906	-0.034075 	0.004037
-74.900000	0.004917	-2.496667	2.501584	-0.033885 	0.004039
-74.800000	0.004929	-2.493333	2.498262	-0.033693 	0.004042
-74.700000	0.004940	-2.490000	2.494940	-0.033500 	0.004045
-74.600000	0.004951	-2.486667	2.491618	-0.033305 	0.004047
-74.500000	0.004961	-2.483333	2.488294	-0.033109 	0.004050
-74.400000	0.004972	-2.480000	2.484972	-0.032912 	0.004053
-74.300000	0.004983	-2.476667	2.481650	-0.032713 	0.004056
-74.200000	0.004993	-2.473333	2.478326	-0.032513 	0.004058
-74.100000	0.005004	-2.470000	2.475004	-0.032311 	0.004061
-74.000000	0.005014	-2.466667	2.471681	-0.032108 	0.004064
-73.900000	0.005024	-2.463333	2.468357	-0.031903 	0.004066
-73.800000	0.005034	-2.460000	2.465034	-0.031697 	0.004069
-73.700000	0.005044	-2.456667	2.461711	-0.031489 	0.004072
-73.600000	0.005053	-2.453333	2.458386	-0.031280 	0.004075
-73.500000	0.005063	-2.450000	2.455063	-0.031070 	0.004077
-73.400000	0.005072	-2.446667	2.451739	-0.030858 	0.004080
-73.300000	0.005082	-2.443333	2.448415	-0.030645 	0.004083
-73.200000	0.005091	-2.440000	2.445091	-0.030430 	0.004086
-73.100000	0.005100	-2.436667	2.441767	-0.030214 	0.004089
-73.000000	0.005109	-2.433333	2.438442	-0.029997 	0.004091
-72.900000	0.005118	-2.430000	2.435118	-0.029778 	0.004094
-72.800000	0.005127	-2.426667	2.431794	-0.029557 	0.004097
-72.700000	0.005135	-2.423333	2.428468	-0.029335 	0.004100
-72.600000	0.005144	-2.420000	2.425144	-0.029112 	0.004102
-72.500000	0.005152	-2.416667	2.421819	-0.028888 	0.004105
-72.400000	0.005161	-2.413333	2.418494	-0.028662 	0.004108
-72.300000	0.005169	-2.410000	2.415169	-0.028434 	0.004111
-72.200000	0.005177	-2.406667	2.411844	-0.028205 	0.004114
-72.100000	0.005185	-2.403333	2.408518	-0.027975 	0.004117
-72.000000	0.005193	-2.400000	2.405193	-0.027743 	0.004119
-71.900000	0.005200	-2.396667	2.401867	-0.027510 	0.004122
-71.800000	0.005208	-2.393333	2.398541	-0.027276 	0.004125
-71.700000	0.005215	-2.390000	2.395215	-0.027040 	0.004128
-71.600000	0.005223	-2.386667	2.391890	-0.026803 	0.004131
-71.500000	0.005230	-2.383333	2.388563	-0.026564 	0.004134
-71.400000	0.005237	-2.380000	2.385237	-0.026324 	0.004137
-71.300000	0.005244	-2.376667	2.381911	-0.026082 	0.004140
-71.200000	0.005251	-2.373333	2.378584	-0.025840 	0.004142
-71.100000	0.005258	-2.370000	2.375258	-0.025595 	0.004145
-71.000000	0.005264	-2.366667	2.371931	-0.025350 	0.004148
-70.900000	0.005271	-2.363333	2.368604	-0.025103 	0.004151
-70.800000	0.005277	-2.360000	2.365277	-0.024854 	0.004154
-70.700000	0.005283	-2.356667	2.361950	-0.024605 	0.004157
-70.600000	0.005290	-2.353333	2.358623	-0.024354 	0.004160
-70.500000	0.005296	-2.350000	2.355296	-0.024101 	0.004163
-70.400000	0.005301	-2.346667	2.351968	-0.023847 	0.004166
-70.300000	0.005307	-2.343333	2.348640	-0.023592 	0.004169
-70.200000	0.005313	-2.340000	2.345313	-0.023335 	0.004172
-70.100000	0.005319	-2.336667	2.341986	-0.023077 	0.004175
-70.000000	0.005324	-2.333333	2.338657	-0.022818 	0.004178
-69.900000	0.005329	-2.330000	2.335329	-0.022557 	0.004181
-69.800000	0.005335	-2.326667	2.332002	-0.022295 	0.004184
-69.700000	0.005340	-2.323333	2.328673	-0.022031 	0.004187
-69.600000	0.005345	-2.320000	2.325345	-0.021767 	0.004190
-69.500000	0.005350	-2.316667	2.322017	-0.021500 	0.004193
-69.400000	0.005354	-2.313333	2.318687	-0.021233 	0.004196
-69.300000	0.005359	-2.310000	2.315359	-0.020964 	0.004199
-69.200000	0.005364	-2.306667	2.312031	-0.020694 	0.004202
-69.100000	0.005368	-2.303333	2.308701	-0.020422 	0.004205
-69.000000	0.005372	-2.300000	2.305372	-0.020149 	0.004208
-68.900000	0.005376	-2.296667	2.302043	-0.019875 	0.004211
-68.800000	0.005380	-2.293333	2.298713	-0.019599 	0.004214
-68.700000	0.005384	-2.290000	2.295384	-0.019322 	0.004217
-68.600000	0.005388	-2.286667	2.292055	-0.019044 	0.004220
-68.500000	0.005392	-2.283333	2.288725	-0.018765 	0.004223
-68.400000	0.005395	-2.280000	2.285395	-0.018484 	0.004226
-68.300000	0.005399	-2.276667	2.282066	-0.018201 	0.004229
-68.200000	0.005402	-2.273333	2.278735	-0.017918 	0.004232
-68.100000	0.005405	-2.270000	2.275405	-0.017633 	0.004235
-68.000000	0.005408	-2.266667	2.272075	-0.017347 	0.004238
-67.900000	0.005411	-2.263333	2.268744	-0.017059 	0.004242
-67.800000	0.005414	-2.260000	2.265414	-0.016770 	0.004245
-67.700000	0.005417	-2.256667	2.262084	-0.016480 	0.004248
-67.600000	0.005420	-2.253333	2.258753	-0.016189 	0.004251
-67.500000	0.005422	-2.250000	2.255422	-0.015896 	0.004254
-67.400000	0.005424	-2.246667	2.252091	-0.015602 	0.004257
-67.300000	0.005427	-2.243333	2.248760	-0.015306 	0.004260
-67.200000	0.005429	-2.240000	2.245429	-0.015010 	0.004264
-67.100000	0.005431	-2.236667	2.242098	-0.014712 	0.004267
-67.000000	0.005433	-2.233333	2.238766	-0.014412 	0.004270
-66.900000	0.005434	-2.230000	2.235434	-0.014112 	0.004273
-66.800000	0.005436	-2.226667	2.232103	-0.013810 	0.004276
-66.700000	0.005438	-2.223333	2.228771	-0.013507 	0.004279
-66.600000	0.005439	-2.220000	2.225439	-0.013202 	0.004283
-66.500000	0.005440	-2.216667	2.222107	-0.012896 	0.004286
-66.400000	0.005441	-2.213333	2.218774	-0.012589 	0.004289
-66.300000	0.005442	-2.210000	2.215442	-0.012281 	0.004292
-66.200000	0.005443	-2.206667	2.212110	-0.011971 	0.004295
-66.100000	0.005444	-2.203333	2.208777	-0.011660 	0.004299
-66.000000	0.005445	-2.200000	2.205445	-0.011348 	0.004302
-65.900000	0.005445	-2.196667	2.202112	-0.011035 	0.004305
-65.800000	0.005446	-2.193333	2.198779	-0.010720 	0.004309
-65.700000	0.005446	-2.190000	2.195446	-0.010404 	0.004312
-65.600000	0.005446	-2.186667	2.192113	-0.010087 	0.004315
-65.500000	0.005446	-2.183333	2.188779	-0.009769 	0.004318
-65.400000	0.005446	-2.180000	2.185446	-0.009449 	0.004322
-65.300000	0.005446	-2.176667	2.182113	-0.009128 	0.004325
-65.200000	0.005446	-2.173333	2.178779	-0.008806 	0.004328
-65.100000	0.005445	-2.170000	2.175445	-0.008482 	0.004332
-65.000000	0.005445	-2.166667	2.172112	-0.008158 	0.004335
-64.900000	0.005444	-2.163333	2.168777	-0.007832 	0.004338
-64.800000	0.005443	-2.160000	2.165443	-0.007505 	0.004342
-64.700000	0.005442	-2.156667	2.162109	-0.007176 	0.004345
-64.600000	0.005441	-2.153333	2.158774	-0.006847 	0.004348
-64.500000	0.005440	-2.150000	2.155440	-0.006516 	0.004352
-64.400000	0.005439	-2.146667	2.152106	-0.006184 	0.004355
-64.300000	0.005437	-2.143333	2.148770	-0.005851 	0.004358
-64.200000	0.005436	-2.140000	2.145436	-0.005516 	0.004362
-64.100000	0.005434	-2.136667	2.142101	-0.005181 	0.004365
-64.000000	0.005432	-2.133333	2.138765	-0.004844 	0.004369
-63.900000	0.005430	-2.130000	2.135430	-0.004506 	0.004372
-63.800000	0.005428	-2.126667	2.132095	-0.004167 	0.004375
-63.700000	0.005426	-2.123333	2.128759	-0.003827 	0.004379
-63.600000	0.005424	-2.120000	2.125424	-0.003485 	0.004382
-63.500000	0.005422	-2.116667	2.122089	-0.003142 	0.004386
-63.400000	0.005419	-2.113333	2.118752	-0.002798 	0.004389
-63.300000	0.005416	-2.110000	2.115416	-0.002453 	0.004393
-63.200000	0.005414	-2.106667	2.112081	-0.002107 	0.004396
-63.100000	0.005411	-2.103333	2.108744	-0.001760 	0.004400
-63.000000	0.005408	-2.100000	2.105408	-0.001411 	0.004403
-62.900000	0.005404	-2.096667	2.102071	-0.001062 	0.004406
-62.800000	0.005401	-2.093333	2.098734	-0.000711 	0.004410
-62.700000	0.005398	-2.090000	2.095398	-0.000359 	0.004414
-62.600000	0.005394	-2.086667	2.092061	-0.000006 	0.004417
-62.500000	0.005391	-2.083333	2.088724	0.000348 	0.004421
-62.400000	0.005387	-2.080000	2.085387	0.000704 	0.004424
-62.300000	0.005383	-2.076667	2.082050	0.001060 	0.004428
-62.200000	0.005379	-2.073333	2.078712	0.001417 	0.004431
-62.100000	0.005375	-2.070000	2.075375	0.001776 	0.004435
-62.000000	0.005370	-2.066667	2.072037	0.002136 	0.004438
-61.900000	0.005366	-2.063333	2.068699	0.002497 	0.004442
-61.800000	0.005361	-2.060000	2.065361	0.002859 	0.004445
-61.700000	0.005357	-2.056667	2.062024	0.003222 	0.004449
-61.600000	0.005352	-2.053333	2.058685	0.003586 	0.004453
-61.500000	0.005347	-2.050000	2.055347	0.003951 	0.004456
-61.400000	0.005342	-2.046667	2.052009	0.004317 	0.004460
-61.300000	0.005337	-2.043333	2.048670	0.004684 	0.004464
-61.200000	0.005332	-2.040000	2.045332	0.005052 	0.004467
-61.100000	0.005326	-2.036667	2.041993	0.005422 	0.004471
-61.000000	0.005321	-2.033333	2.038654	0.005792 	0.004475
-60.900000	0.005315	-2.030000	2.035315	0.006164 	0.004478
-60.800000	0.005309	-2.026667	2.031976	0.006536 	0.004482
-60.700000	0.005303	-2.023333	2.028636	0.006909 	0.004486
-60.600000	0.005297	-2.020000	2.025297	0.007284 	0.004489
-60.500000	0.005291	-2.016667	2.021958	0.007659 	0.004493
-60.400000	0.005285	-2.013333	2.018618	0.008036 	0.004497
-60.300000	0.005279	-2.010000	2.015279	0.008413 	0.004500
-60.200000	0.005272	-2.006667	2.011939	0.008792 	0.004504
-60.100000	0.005265	-2.003333	2.008598	0.009171 	0.004508
-60.000000	0.005259	-2.000000	2.005259	0.009552 	0.004512
-59.900000	0.005252	-1.996667	2.001919	0.009933 	0.004515
-59.800000	0.005245	-1.993333	1.998578	0.010315 	0.004519
-59.700000	0.005238	-1.990000	1.995238	0.010699 	0.004523
-59.600000	0.005230	-1.986667	1.991897	0.011083 	0.004527
-59.500000	0.005223	-1.983333	1.988556	0.011468 	0.004531
-59.400000	0.005216	-1.980000	1.985216	0.011854 	0.004534
-59.300000	0.005208	-1.976667	1.981875	0.012241 	0.004538
-59.200000	0.005200	-1.973333	1.978533	0.012629 	0.004542
-59.100000	0.005192	-1.970000	1.975192	0.013018 	0.004546
-59.000000	0.005184	-1.966667	1.971851	0.013408 	0.004550
-58.900000	0.005176	-1.963333	1.968509	0.013798 	0.004554
-58.800000	0.005168	-1.960000	1.965168	0.014190 	0.004557
-58.700000	0.005160	-1.956667	1.961827	0.014582 	0.004561
-58.600000	0.005151	-1.953333	1.958484	0.014975 	0.004565
-58.500000	0.005143	-1.950000	1.955143	0.015369 	0.004569
-58.400000	0.005134	-1.946667	1.951801	0.015764 	0.004573
-58.300000	0.005125	-1.943333	1.948458	0.016160 	0.004577
-58.200000	0.005116	-1.940000	1.945116	0.016557 	0.004581
-58.100000	0.005107	-1.936667	1.941774	0.016954 	0.004585
-58.000000	0.005098	-1.933333	1.938431	0.017353 	0.004589
-57.900000	0.005089	-1.930000	1.935089	0.017752 	0.004593
-57.800000	0.005080	-1.926667	1.931747	0.018152 	0.004597
-57.700000	0.005070	-1.923333	1.928403	0.018552 	0.004601
-57.600000	0.005060	-1.920000	1.925060	0.018954 	0.004605
-57.500000	0.005051	-1.916667	1.921718	0.019356 	0.004609
-57.400000	0.005041	-1.913333	1.918374	0.019759 	0.004613
-57.300000	0.005031	-1.910000	1.915031	0.020163 	0.004617
-57.200000	0.005021	-1.906667	1.911688	0.020567 	0.004621
-57.100000	0.005011	-1.903333	1.908344	0.020972 	0.004625
-57.000000	0.005000	-1.900000	1.905000	0.021378 	0.004629
-56.900000	0.004990	-1.896667	1.901657	0.021785 	0.004633
-56.800000	0.004979	-1.893333	1.898312	0.022192 	0.004637
-56.700000	0.004969	-1.890000	1.894969	0.022600 	0.004641
-56.600000	0.004958	-1.886667	1.891625	0.023009 	0.004645
-56.500000	0.004947	-1.883333	1.888280	0.023419 	0.004649
-56.400000	0.004936	-1.880000	1.884936	0.023829 	0.004653
-56.300000	0.004925	-1.876667	1.881592	0.024239 	0.004658
-56.200000	0.004914	-1.873333	1.878247	0.024651 	0.004662
-56.100000	0.004903	-1.870000	1.874903	0.025063 	0.004666
-56.000000	0.004891	-1.866667	1.871558	0.025476 	0.004670
-55.900000	0.004880	-1.863333	1.868213	0.025889 	0.004674
-55.800000	0.004868	-1.860000	1.864868	0.026303 	0.004678
-55.700000	0.004856	-1.856667	1.861523	0.026717 	0.004683
-55.600000	0.004844	-1.853333	1.858177	0.027132 	0.004687
-55.500000	0.004833	-1.850000	1.854833	0.027548 	0.004691
-55.400000	0.004820	-1.846667	1.851487	0.027964 	0.004695
-55.300000	0.004808	-1.843333	1.848141	0.028381 	0.004699
-55.200000	0.004796	-1.840000	1.844796	0.028798 	0.004704
-55.100000	0.004784	-1.836667	1.841451	0.029216 	0.004708
-55.000000	0.004771	-1.833333	1.838104	0.029634 	0.004712
-54.900000	0.004759	-1.830000	1.834759	0.030053 	0.004717
-54.800000	0.004746	-1.826667	1.831413	0.030472 	0.004721
-54.700000	0.004733	-1.823333	1.828066	0.030892 	0.004725
-54.600000	0.004720	-1.820000	1.824720	0.031312 	0.004730
-54.500000	0.004707	-1.816667	1.821374	0.031733 	0.004734
-54.400000	0.004694	-1.813333	1.818027	0.032154 	0.004738
-54.300000	0.004681	-1.810000	1.814681	0.032576 	0.004743
-54.200000	0.004668	-1.806667	1.811335	0.032998 	0.004747
-54.100000	0.004654	-1.803333	1.807987	0.033420 	0.004751
-54.000000	0.004641	-1.800000	1.804641	0.033843 	0.004756
-53.900000	0.004627	-1.796667	1.801294	0.034266 	0.004760
-53.800000	0.004614	-1.793333	1.797947	0.034690 	0.004765
-53.700000	0.004600	-1.790000	1.794600	0.035114 	0.004769
-53.600000	0.004586	-1.786667	1.791253	0.035538 	0.004774
-53.500000	0.004572	-1.783333	1.787905	0.035963 	0.004778
-53.400000	0.004558	-1.780000	1.784558	0.036388 	0.004782
-53.300000	0.004544	-1.776667	1.781211	0.036813 	0.004787
-53.200000	0.004529	-1.773333	1.777862	0.037238 	0.004791
-53.100000	0.004515	-1.770000	1.774515	0.037664 	0.004796
-53.000000	0.004501	-1.766667	1.771168	0.038090 	0.004801
-52.900000	0.004486	-1.763333	1.767819	0.038517 	0.004805
-52.800000	0.004471	-1.760000	1.764471	0.038943 	0.004810
-52.700000	0.004457	-1.756667	1.761124	0.039370 	0.004814
-52.600000	0.004442	-1.753333	1.757775	0.039797 	0.004819
-52.500000	0.004427	-1.750000	1.754427	0.040224 	0.004823
-52.400000	0.004412	-1.746667	1.751079	0.040651 	0.004828
-52.300000	0.004397	-1.743333	1.747730	0.041079 	0.004833
-52.200000	0.004382	-1.740000	1.744382	0.041506 	0.004837
-52.100000	0.004367	-1.736667	1.741034	0.041934 	0.004842
-52.000000	0.004351	-1.733333	1.737684	0.042362 	0.004847
-51.900000	0.004336	-1.730000	1.734336	0.042790 	0.004851
-51.800000	0.004320	-1.726667	1.730987	0.043218 	0.004856
-51.700000	0.004305	-1.723333	1.727638	0.043646 	0.004861
-51.600000	0.004289	-1.720000	1.724289	0.044075 	0.004865
-51.500000	0.004273	-1.716667	1.720940	0.044503 	0.004870
-51.400000	0.004257	-1.713333	1.717590	0.044931 	0.004875
-51.300000	0.004241	-1.710000	1.714241	0.045360 	0.004880
-51.200000	0.004225	-1.706667	1.710892	0.045788 	0.004884
-51.100000	0.004209	-1.703333	1.707542	0.046216 	0.004889
-51.000000	0.004193	-1.700000	1.704193	0.046645 	0.004894
-50.900000	0.004177	-1.696667	1.700844	0.047073 	0.004899
-50.800000	0.004161	-1.693333	1.697494	0.047501 	0.004904
-50.700000	0.004144	-1.690000	1.694144	0.047929 	0.004908
-50.600000	0.004128	-1.686667	1.690795	0.048357 	0.004913
-50.500000	0.004111	-1.683333	1.687444	0.048785 	0.004918
-50.400000	0.004094	-1.680000	1.684094	0.049213 	0.004923
-50.300000	0.004078	-1.676667	1.680745	0.049640 	0.004928
-50.200000	0.004061	-1.673333	1.677394	0.050068 	0.004933
-50.100000	0.004044	-1.670000	1.674044	0.050495 	0.004938
-50.000000	0.004027	-1.666667	1.670694	0.050922 	0.004943
-49.900000	0.004010	-1.663333	1.667343	0.051349 	0.004948
-49.800000	0.003993	-1.660000	1.663993	0.051775 	0.004953
-49.700000	0.003976	-1.656667	1.660643	0.052202 	0.004958
-49.600000	0.003959	-1.653333	1.657292	0.052628 	0.004963
-49.500000	0.003941	-1.650000	1.653941	0.053053 	0.004968
-49.400000	0.003924	-1.646667	1.650591	0.053479 	0.004973
-49.300000	0.003907	-1.643333	1.647240	0.053904 	0.004978