VARIABLES = X,Ksi,B,H,U,tau 
ZONE T="Time 50.000000", I=1100, DATAPACKING=POINT
-100.000000	-0.009022	-3.333333	3.324311	-0.003091 	0.003504
-99.900000	-0.002139	-3.330000	3.327861	-0.014745 	0.003502
-99.800000	-0.004932	-3.326667	3.321735	-0.009786 	0.003505
-99.700000	-0.003585	-3.323333	3.319748	-0.011937 	0.003506
-99.600000	-0.004008	-3.320000	3.315992	-0.011046 	0.003508
-99.500000	-0.003674	-3.316667	3.312993	-0.011457 	0.003510
-99.400000	-0.003663	-3.313333	3.309670	-0.011310 	0.003512
-99.300000	-0.003514	-3.310000	3.306486	-0.011401 	0.003513
-99.200000	-0.003424	-3.306667	3.303243	-0.011390 	0.003515
-99.100000	-0.003308	-3.303333	3.300025	-0.011423 	0.003517
-99.000000	-0.003203	-3.300000	3.296797	-0.011436 	0.003519
-98.900000	-0.003093	-3.296667	3.293574	-0.011457 	0.003520
-98.800000	-0.002986	-3.293333	3.290347	-0.011475 	0.003522
-98.700000	-0.002877	-3.290000	3.287123	-0.011494 	0.003524
-98.600000	-0.002768	-3.286667	3.283899	-0.011511 	0.003526
-98.500000	-0.002659	-3.283333	3.280674	-0.011529 	0.003527
-98.400000	-0.002550	-3.280000	3.277450	-0.011547 	0.003529
-98.300000	-0.002440	-3.276667	3.274227	-0.011564 	0.003531
-98.200000	-0.002331	-3.273333	3.271002	-0.011581 	0.003532
-98.100000	-0.002222	-3.270000	3.267778	-0.011598 	0.003534
-98.000000	-0.002112	-3.266667	3.264555	-0.011614 	0.003536
-97.900000	-0.002002	-3.263333	3.261331	-0.011631 	0.003538
-97.800000	-0.001892	-3.260000	3.258108	-0.011647 	0.003539
-97.700000	-0.001782	-3.256667	3.254885	-0.011662 	0.003541
-97.600000	-0.001672	-3.253333	3.251661	-0.011678 	0.003543
-97.500000	-0.001562	-3.250000	3.248438	-0.011693 	0.003545
-97.400000	-0.001451	-3.246667	3.245216	-0.011708 	0.003546
-97.300000	-0.001341	-3.243333	3.241992	-0.011723 	0.003548
-97.200000	-0.001230	-3.240000	3.238770	-0.011737 	0.003550
-97.100000	-0.001119	-3.236667	3.235548	-0.011751 	0.003552
-97.000000	-0.001008	-3.233333	3.232325	-0.011765 	0.003554
-96.900000	-0.000897	-3.230000	3.229103	-0.011779 	0.003555
-96.800000	-0.000786	-3.226667	3.225881	-0.011792 	0.003557
-96.700000	-0.000675	-3.223333	3.222658	-0.011805 	0.003559
-96.600000	-0.000563	-3.220000	3.219437	-0.011818 	0.003561
-96.500000	-0.000452	-3.216667	3.216215	-0.011830 	0.003562
-96.400000	-0.000340	-3.213333	3.212993	-0.011843 	0.003564
-96.300000	-0.000229	-3.210000	3.209771	-0.011855 	0.003566
-96.200000	-0.000117	-3.206667	3.206550	-0.011866 	0.003568
-96.100000	-0.000005	-3.203333	3.203328	-0.011878 	0.003570
-96.000000	0.000107	-3.200000	3.200107	-0.011889 	0.003571
-95.900000	0.000219	-3.196667	3.196886	-0.011900 	0.003573
-95.800000	0.000332	-3.193333	3.193665	-0.011910 	0.003575
-95.700000	0.000444	-3.190000	3.190444	-0.011920 	0.003577
-95.600000	0.000556	-3.186667	3.187223	-0.011930 	0.003579
-95.500000	0.000669	-3.183333	3.184002	-0.011940 	0.003580
-95.400000	0.000781	-3.180000	3.180781	-0.011950 	0.003582
-95.300000	0.000894	-3.176667	3.177561	-0.011959 	0.003584
-95.200000	0.001007	-3.173333	3.174340	-0.011968 	0.003586
-95.100000	0.001120	-3.170000	3.171120	-0.011976 	0.003588
-95.000000	0.001233	-3.166667	3.167900	-0.011985 	0.003589
-94.900000	0.001346	-3.163333	3.164679	-0.011993 	0.003591
-94.800000	0.001459	-3.160000	3.161459	-0.012000 	0.003593
-94.700000	0.001572	-3.156667	3.158239	-0.012008 	0.003595
-94.600000	0.001685	-3.153333	3.155018	-0.012015 	0.003597
-94.500000	0.001798	-3.150000	3.151798	-0.012022 	0.003599
-94.400000	0.001912	-3.146667	3.148579	-0.012029 	0.003600
-94.300000	0.002025	-3.143333	3.145358	-0.012035 	0.003602
-94.200000	0.002139	-3.140000	3.142139	-0.012041 	0.003604
-94.100000	0.002252	-3.136667	3.138919	-0.012047 	0.003606
-94.000000	0.002366	-3.133333	3.135699	-0.012052 	0.003608
-93.900000	0.002480	-3.130000	3.132480	-0.012057 	0.003610
-93.800000	0.002593	-3.126667	3.129260	-0.012062 	0.003612
-93.700000	0.002707	-3.123333	3.126040	-0.012067 	0.003613
-93.600000	0.002821	-3.120000	3.122821	-0.012071 	0.003615
-93.500000	0.002935	-3.116667	3.119602	-0.012075 	0.003617
-93.400000	0.003049	-3.113333	3.116382	-0.012078 	0.003619
-93.300000	0.003163	-3.110000	3.113163	-0.012082 	0.003621
-93.200000	0.003277	-3.106667	3.109944	-0.012085 	0.003623
-93.100000	0.003391	-3.103333	3.106724	-0.012088 	0.003625
-93.000000	0.003506	-3.100000	3.103506	-0.012090 	0.003627
-92.900000	0.003620	-3.096667	3.100287	-0.012092 	0.003628
-92.800000	0.003734	-3.093333	3.097067	-0.012094 	0.003630
-92.700000	0.003848	-3.090000	3.093848	-0.012096 	0.003632
-92.600000	0.003963	-3.086667	3.090630	-0.012097 	0.003634
-92.500000	0.004077	-3.083333	3.087410	-0.012098 	0.003636
-92.400000	0.004192	-3.080000	3.084192	-0.012099 	0.003638
-92.300000	0.004306	-3.076667	3.080973	-0.012099 	0.003640
-92.200000	0.004421	-3.073333	3.077754	-0.012099 	0.003642
-92.100000	0.004535	-3.070000	3.074535	-0.012099 	0.003644
-92.000000	0.004650	-3.066667	3.071317	-0.012098 	0.003645
-91.900000	0.004764	-3.063333	3.068097	-0.012097 	0.003647
-91.800000	0.004879	-3.060000	3.064879	-0.012096 	0.003649
-91.700000	0.004993	-3.056667	3.061660	-0.012095 	0.003651
-91.600000	0.005108	-3.053333	3.058441	-0.012093 	0.003653
-91.500000	0.005223	-3.050000	3.055223	-0.012091 	0.003655
-91.400000	0.005337	-3.046667	3.052004	-0.012089 	0.003657
-91.300000	0.005452	-3.043333	3.048785	-0.012086 	0.003659
-91.200000	0.005566	-3.040000	3.045566	-0.012083 	0.003661
-91.100000	0.005681	-3.036667	3.042348	-0.012080 	0.003663
-91.000000	0.005796	-3.033333	3.039129	-0.012077 	0.003665
-90.900000	0.005910	-3.030000	3.035910	-0.012073 	0.003667
-90.800000	0.006025	-3.026667	3.032692	-0.012069 	0.003669
-90.700000	0.006139	-3.023333	3.029472	-0.012064 	0.003671
-90.600000	0.006254	-3.020000	3.026254	-0.012060 	0.003673
-90.500000	0.006369	-3.016667	3.023036	-0.012055 	0.003674
-90.400000	0.006483	-3.013333	3.019816	-0.012049 	0.003676
-90.300000	0.006598	-3.010000	3.016598	-0.012044 	0.003678
-90.200000	0.006713	-3.006667	3.013380	-0.012038 	0.003680
-90.100000	0.006827	-3.003333	3.010160	-0.012031 	0.003682
-90.000000	0.006942	-3.000000	3.006942	-0.012025 	0.003684
-89.900000	0.007056	-2.996667	3.003723	-0.012018 	0.003686
-89.800000	0.007171	-2.993333	3.000504	-0.012010 	0.003688
-89.700000	0.007285	-2.990000	2.997285	-0.012003 	0.003690
-89.600000	0.007400	-2.986667	2.994067	-0.011995 	0.003692
-89.500000	0.007514	-2.983333	2.990847	-0.011987 	0.003694
-89.400000	0.007629	-2.980000	2.987629	-0.011978 	0.003696
-89.300000	0.007743	-2.976667	2.984410	-0.011969 	0.003698
-89.200000	0.007858	-2.973333	2.981191	-0.011960 	0.003700
-89.100000	0.007972	-2.970000	2.977972	-0.011951 	0.003702
-89.000000	0.008086	-2.966667	2.974753	-0.011941 	0.003704
-88.900000	0.008201	-2.963333	2.971534	-0.011931 	0.003706
-88.800000	0.008315	-2.960000	2.968315	-0.011920 	0.003708
-88.700000	0.008429	-2.956667	2.965096	-0.011910 	0.003710
-88.600000	0.008543	-2.953333	2.961876	-0.011898 	0.003712
-88.500000	0.008658	-2.950000	2.958658	-0.011887 	0.003714
-88.400000	0.008772	-2.946667	2.955439	-0.011875 	0.003716
-88.300000	0.008886	-2.943333	2.952219	-0.011863 	0.003718
-88.200000	0.009000	-2.940000	2.949000	-0.011851 	0.003720
-88.100000	0.009114	-2.936667	2.945781	-0.011838 	0.003722
-88.000000	0.009227	-2.933333	2.942560	-0.011825 	0.003724
-87.900000	0.009341	-2.930000	2.939341	-0.011812 	0.003726
-87.800000	0.009455	-2.926667	2.936122	-0.011798 	0.003728
-87.700000	0.009569	-2.923333	2.932902	-0.011784 	0.003731
-87.600000	0.009682	-2.920000	2.929682	-0.011770 	0.003733
-87.500000	0.009796	-2.916667	2.926463	-0.011755 	0.003735
-87.400000	0.009909	-2.913333	2.923242	-0.011740 	0.003737
-87.300000	0.010023	-2.910000	2.920023	-0.011725 	0.003739
-87.200000	0.010136	-2.906667	2.916803	-0.011710 	0.003741
-87.100000	0.010249	-2.903333	2.913582	-0.011694 	0.003743
-87.000000	0.010363	-2.900000	2.910363	-0.011677 	0.003745
-86.900000	0.010476	-2.896667	2.907143	-0.011661 	0.003747
-86.800000	0.010589	-2.893333	2.903922	-0.011644 	0.003749
-86.700000	0.010702	-2.890000	2.900702	-0.011627 	0.003751
-86.600000	0.010814	-2.886667	2.897481	-0.011609 	0.003753
-86.500000	0.010927	-2.883333	2.894260	-0.011591 	0.003755
-86.400000	0.011040	-2.880000	2.891040	-0.011573 	0.003757
-86.300000	0.011152	-2.876667	2.887819	-0.011555 	0.003760
-86.200000	0.011265	-2.873333	2.884598	-0.011536 	0.003762
-86.100000	0.011377	-2.870000	2.881377	-0.011517 	0.003764
-86.000000	0.011489	-2.866667	2.878156	-0.011497 	0.003766
-85.900000	0.011601	-2.863333	2.874934	-0.011477 	0.003768
-85.800000	0.011713	-2.860000	2.871713	-0.011457 	0.003770
-85.700000	0.011825	-2.856667	2.868492	-0.011437 	0.003772
-85.600000	0.011937	-2.853333	2.865270	-0.011416 	0.003774
-85.500000	0.012049	-2.850000	2.862049	-0.011395 	0.003776
-85.400000	0.012160	-2.846667	2.858827	-0.011373 	0.003779
-85.300000	0.012272	-2.843333	2.855605	-0.011351 	0.003781
-85.200000	0.012383	-2.840000	2.852383	-0.011329 	0.003783
-85.100000	0.012494	-2.836667	2.849161	-0.011307 	0.003785
-85.000000	0.012606	-2.833333	2.845939	-0.011284 	0.003787
-84.900000	0.012717	-2.830000	2.842717	-0.011261 	0.003789
-84.800000	0.012827	-2.826667	2.839494	-0.011237 	0.003791
-84.700000	0.012938	-2.823333	2.836271	-0.011214 	0.003794
-84.600000	0.013049	-2.820000	2.833049	-0.011190 	0.003796
-84.500000	0.013159	-2.816667	2.829826	-0.011165 	0.003798
-84.400000	0.013269	-2.813333	2.826602	-0.011140 	0.003800
-84.300000	0.013379	-2.810000	2.823379	-0.011115 	0.003802
-84.200000	0.013489	-2.806667	2.820156	-0.011090 	0.003804
-84.100000	0.013599	-2.803333	2.816932	-0.011064 	0.003807
-84.000000	0.013709	-2.800000	2.813709	-0.011038 	0.003809
-83.900000	0.013818	-2.796667	2.810485	-0.011011 	0.003811
-83.800000	0.013928	-2.793333	2.807261	-0.010985 	0.003813
-83.700000	0.014037	-2.790000	2.804037	-0.010957 	0.003815
-83.600000	0.014146	-2.786667	2.800813	-0.010930 	0.003817
-83.500000	0.014255	-2.783333	2.797588	-0.010902 	0.003820
-83.400000	0.014364	-2.780000	2.794364	-0.010874 	0.003822
-83.300000	0.014472	-2.776667	2.791139	-0.010846 	0.003824
-83.200000	0.014581	-2.773333	2.787914	-0.010817 	0.003826
-83.100000	0.014689	-2.770000	2.784689	-0.010788 	0.003828
-83.000000	0.014797	-2.766667	2.781464	-0.010758 	0.003831
-82.900000	0.014905	-2.763333	2.778238	-0.010728 	0.003833
-82.800000	0.015012	-2.760000	2.775012	-0.010698 	0.003835
-82.700000	0.015120	-2.756667	2.771787	-0.010668 	0.003837
-82.600000	0.015227	-2.753333	2.768560	-0.010637 	0.003840
-82.500000	0.015334	-2.750000	2.765334	-0.010606 	0.003842
-82.400000	0.015441	-2.746667	2.762108	-0.010574 	0.003844
-82.300000	0.015548	-2.743333	2.758881	-0.010543 	0.003846
-82.200000	0.015654	-2.740000	2.755654	-0.010511 	0.003849
-82.100000	0.015761	-2.736667	2.752428	-0.010478 	0.003851
-82.000000	0.015867	-2.733333	2.749200	-0.010445 	0.003853
-81.900000	0.015973	-2.730000	2.745973	-0.010412 	0.003855
-81.800000	0.016079	-2.726667	2.742746	-0.010379 	0.003858
-81.700000	0.016184	-2.723333	2.739517	-0.010345 	0.003860
-81.600000	0.016289	-2.720000	2.736289	-0.010311 	0.003862
-81.500000	0.016394	-2.716667	2.733061	-0.010276 	0.003864
-81.400000	0.016499	-2.713333	2.729832	-0.010241 	0.003867
-81.300000	0.016604	-2.710000	2.726604	-0.010206 	0.003869
-81.200000	0.016708	-2.706667	2.723375	-0.010171 	0.003871
-81.100000	0.016813	-2.703333	2.720146	-0.010135 	0.003874
-81.000000	0.016917	-2.700000	2.716917	-0.010099 	0.003876
-80.900000	0.017020	-2.696667	2.713687	-0.010062 	0.003878
-80.800000	0.017124	-2.693333	2.710457	-0.010025 	0.003881
-80.700000	0.017227	-2.690000	2.707227	-0.009988 	0.003883
-80.600000	0.017330	-2.686667	2.703997	-0.009951 	0.003885
-80.500000	0.017433	-2.683333	2.700766	-0.009913 	0.003888
-80.400000	0.017536	-2.680000	2.697536	-0.009875 	0.003890
-80.300000	0.017638	-2.676667	2.694305	-0.009836 	0.003892
-80.200000	0.017740	-2.673333	2.691073	-0.009797 	0.003895
-80.100000	0.017842	-2.670000	2.687842	-0.009758 	0.003897
-80.000000	0.017943	-2.666667	2.684610	-0.009719 	0.003899
-79.900000	0.018045	-2.663333	2.681378	-0.009679 	0.003902
-79.800000	0.018146	-2.660000	2.678146	-0.009639 	0.003904
-79.700000	0.018247	-2.656667	2.674914	-0.009598 	0.003906
-79.600000	0.018347	-2.653333	2.671680	-0.009557 	0.003909
-79.500000	0.018447	-2.650000	2.668447	-0.009516 	0.003911
-79.400000	0.018547	-2.646667	2.665214	-0.009475 	0.003913
-79.300000	0.018647	-2.643333	2.661980	-0.009433 	0.003916
-79.200000	0.018747	-2.640000	2.658747	-0.009391 	0.003918
-79.100000	0.018846	-2.636667	2.655513	-0.009348 	0.003921
-79.000000	0.018945	-2.633333	2.652278	-0.009306 	0.003923
-78.900000	0.019043	-2.630000	2.649043	-0.009262 	0.003925
-78.800000	0.019142	-2.626667	2.645809	-0.009219 	0.003928
-78.700000	0.019240	-2.623333	2.642573	-0.009175 	0.003930
-78.600000	0.019337	-2.620000	2.639337	-0.009131 	0.003933
-78.500000	0.019435	-2.616667	2.636102	-0.009087 	0.003935
-78.400000	0.019532	-2.613333	2.632865	-0.009042 	0.003937
-78.300000	0.019629	-2.610000	2.629629	-0.008997 	0.003940
-78.200000	0.019725	-2.606667	2.626392	-0.008951 	0.003942
-78.100000	0.019822	-2.603333	2.623155	-0.008905 	0.003945
-78.000000	0.019918	-2.600000	2.619918	-0.008859 	0.003947
-77.900000	0.020013	-2.596667	2.616680	-0.008813 	0.003949
-77.800000	0.020109	-2.593333	2.613442	-0.008766 	0.003952
-77.700000	0.020204	-2.590000	2.610204	-0.008719 	0.003954
-77.600000	0.020298	-2.586667	2.606965	-0.008672 	0.003957
-77.500000	0.020393	-2.583333	2.603726	-0.008624 	0.003959
-77.400000	0.020487	-2.580000	2.600487	-0.008576 	0.003962
-77.300000	0.020580	-2.576667	2.597247	-0.008527 	0.003964
-77.200000	0.020674	-2.573333	2.594007	-0.008479 	0.003967
-77.100000	0.020767	-2.570000	2.590767	-0.008430 	0.003969
-77.000000	0.020860	-2.566667	2.587527	-0.008380 	0.003972
-76.900000	0.020952	-2.563333	2.584285	-0.008331 	0.003974
-76.800000	0.021044	-2.560000	2.581044	-0.008281 	0.003977
-76.700000	0.021136	-2.556667	2.577803	-0.008230 	0.003979
-76.600000	0.021227	-2.553333	2.574560	-0.008180 	0.003982
-76.500000	0.021318	-2.550000	2.571318	-0.008129 	0.003984
-76.400000	0.021409	-2.546667	2.568076	-0.008077 	0.003987
-76.300000	0.021499	-2.543333	2.564832	-0.008026 	0.003989
-76.200000	0.021589	-2.540000	2.561589	-0.007974 	0.003992
-76.100000	0.021679	-2.536667	2.558346	-0.007921 	0.003994
-76.000000	0.021768	-2.533333	2.555101	-0.007869 	0.003997
-75.900000	0.021857	-2.530000	2.551857	-0.007816 	0.003999
-75.800000	0.021945	-2.526667	2.548612	-0.007763 	0.004002
-75.700000	0.022033	-2.523333	2.545366	-0.007709 	0.004004
-75.600000	0.022121	-2.520000	2.542121	-0.007655 	0.004007
-75.500000	0.022208	-2.516667	2.538875	-0.007601 	0.004010
-75.400000	0.022295	-2.513333	2.535628	-0.007547 	0.004012
-75.300000	0.022382	-2.510000	2.532382	-0.007492 	0.004015
-75.200000	0.022468	-2.506667	2.529135	-0.007437 	0.004017
-75.100000	0.022554	-2.503333	2.525887	-0.007381 	0.004020
-75.000000	0.022639	-2.500000	2.522639	-0.007325 	0.004022
-74.900000	0.022725	-2.496667	2.519392	-0.007269 	0.004025
-74.800000	0.022809	-2.493333	2.516142	-0.007213 	0.004028
-74.700000	0.022893	-2.490000	2.512893	-0.007156 	0.004030
-74.600000	0.022977	-2.486667	2.509644	-0.007099 	0.004033
-74.500000	0.023061	-2.483333	2.506394	-0.007042 	0.004035
-74.400000	0.023144	-2.480000	2.503144	-0.006984 	0.004038
-74.300000	0.023226	-2.476667	2.499893	-0.006926 	0.004041
-74.200000	0.023309	-2.473333	2.496642	-0.006868 	0.004043
-74.100000	0.023390	-2.470000	2.493390	-0.006809 	0.004046
-74.000000	0.023472	-2.466667	2.490139	-0.006750 	0.004049
-73.900000	0.023553	-2.463333	2.486886	-0.006691 	0.004051
-73.800000	0.023633	-2.460000	2.483633	-0.006632 	0.004054
-73.700000	0.023713	-2.456667	2.480380	-0.006572 	0.004057
-73.600000	0.023793	-2.453333	2.477126	-0.006512 	0.004059
-73.500000	0.023872	-2.450000	2.473872	-0.006451 	0.004062
-73.400000	0.023951	-2.446667	2.470618	-0.006390 	0.004065
-73.300000	0.024029	-2.443333	2.467362	-0.006329 	0.004067
-73.200000	0.024107	-2.440000	2.464107	-0.006268 	0.004070
-73.100000	0.024184	-2.436667	2.460851	-0.006206 	0.004073
-73.000000	0.024261	-2.433333	2.457594	-0.006144 	0.004075
-72.900000	0.024338	-2.430000	2.454338	-0.006082 	0.004078
-72.800000	0.024414	-2.426667	2.451081	-0.006019 	0.004081
-72.700000	0.024490	-2.423333	2.447823	-0.005957 	0.004083
-72.600000	0.024565	-2.420000	2.444565	-0.005893 	0.004086
-72.500000	0.024639	-2.416667	2.441306	-0.005830 	0.004089
-72.400000	0.024714	-2.413333	2.438047	-0.005766 	0.004092
-72.300000	0.024787	-2.410000	2.434787	-0.005702 	0.004094
-72.200000	0.024861	-2.406667	2.431528	-0.005638 	0.004097
-72.100000	0.024933	-2.403333	2.428266	-0.005573 	0.004100
-72.000000	0.025006	-2.400000	2.425006	-0.005508 	0.004103
-71.900000	0.025078	-2.396667	2.421745	-0.005443 	0.004105
-71.800000	0.025149	-2.393333	2.418482	-0.005377 	0.004108
-71.700000	0.025220	-2.390000	2.415220	-0.005311 	0.004111
-71.600000	0.025290	-2.386667	2.411957	-0.005245 	0.004114
-71.500000	0.025360	-2.383333	2.408693	-0.005178 	0.004116
-71.400000	0.025429	-2.380000	2.405429	-0.005112 	0.004119
-71.300000	0.025498	-2.376667	2.402165	-0.005045 	0.004122
-71.200000	0.025566	-2.373333	2.398899	-0.004977 	0.004125
-71.100000	0.025634	-2.370000	2.395634	-0.004910 	0.004128
-71.000000	0.025701	-2.366667	2.392368	-0.004842 	0.004131
-70.900000	0.025768	-2.363333	2.389101	-0.004774 	0.004133
-70.800000	0.025835	-2.360000	2.385835	-0.004705 	0.004136
-70.700000	0.025900	-2.356667	2.382567	-0.004636 	0.004139
-70.600000	0.025966	-2.353333	2.379299	-0.004567 	0.004142
-70.500000	0.026030	-2.350000	2.376030	-0.004498 	0.004145
-70.400000	0.026094	-2.346667	2.372761	-0.004428 	0.004148
-70.300000	0.026158	-2.343333	2.369491	-0.004358 	0.004150
-70.200000	0.026221	-2.340000	2.366221	-0.004288 	0.004153
-70.100000	0.026284	-2.336667	2.362951	-0.004217 	0.004156
-70.000000	0.026346	-2.333333	2.359679	-0.004147 	0.004159
-69.900000	0.026407	-2.330000	2.356407	-0.004076 	0.004162
-69.800000	0.026468	-2.326667	2.353135	-0.004004 	0.004165
-69.700000	0.026528	-2.323333	2.349861	-0.003933 	0.004168
-69.600000	0.026588	-2.320000	2.346588	-0.003861 	0.004171
-69.500000	0.026647	-2.316667	2.343314	-0.003789 	0.004174
-69.400000	0.026706	-2.313333	2.340039	-0.003716 	0.004176
-69.300000	0.026764	-2.310000	2.336764	-0.003643 	0.004179
-69.200000	0.026822	-2.306667	2.333489	-0.003570 	0.004182
-69.100000	0.026879	-2.303333	2.330212	-0.003497 	0.004185
-69.000000	0.026935	-2.300000	2.326935	-0.003423 	0.004188
-68.900000	0.026991	-2.296667	2.323658	-0.003350 	0.004191
-68.800000	0.027046	-2.293333	2.320379	-0.003276 	0.004194
-68.700000	0.027101	-2.290000	2.317101	-0.003201 	0.004197
-68.600000	0.027155	-2.286667	2.313822	-0.003126 	0.004200
-68.500000	0.027208	-2.283333	2.310541	-0.003052 	0.004203
-68.400000	0.027261	-2.280000	2.307261	-0.002976 	0.004206
-68.300000	0.027313	-2.276667	2.303980	-0.002901 	0.004209
-68.200000	0.027365	-2.273333	2.300698	-0.002825 	0.004212
-68.100000	0.027416	-2.270000	2.297416	-0.002749 	0.004215
-68.000000	0.027466	-2.266667	2.294133	-0.002673 	0.004218
-67.900000	0.027516	-2.263333	2.290849	-0.002597 	0.004221
-67.800000	0.027565	-2.260000	2.287565	-0.002520 	0.004224
-67.700000	0.027614	-2.256667	2.284281	-0.002443 	0.004227
-67.600000	0.027662	-2.253333	2.280995	-0.002365 	0.004230
-67.500000	0.027709	-2.250000	2.277709	-0.002288 	0.004233
-67.400000	0.027756	-2.246667	2.274423	-0.002210 	0.004236
-67.300000	0.027802	-2.243333	2.271135	-0.002132 	0.004239
-67.200000	0.027847	-2.240000	2.267847	-0.002054 	0.004242
-67.100000	0.027892	-2.236667	2.264559	-0.001975 	0.004245
-67.000000	0.027936	-2.233333	2.261269	-0.001896 	0.004249
-66.900000	0.027980	-2.230000	2.257980	-0.001817 	0.004252
-66.800000	0.028023	-2.226667	2.254690	-0.001738 	0.004255
-66.700000	0.028065	-2.223333	2.251398	-0.001658 	0.004258
-66.600000	0.028106	-2.220000	2.248106	-0.001579 	0.004261
-66.500000	0.028147	-2.216667	2.244814	-0.001499 	0.004264
-66.400000	0.028187	-2.213333	2.241520	-0.001418 	0.004267
-66.300000	0.028227	-2.210000	2.238227	-0.001338 	0.004270
-66.200000	0.028266	-2.206667	2.234933	-0.001257 	0.004274
-66.100000	0.028304	-2.203333	2.231637	-0.001176 	0.004277
-66.000000	0.028342	-2.200000	2.228342	-0.001094 	0.004280
-65.900000	0.028378	-2.196667	2.225045	-0.001013 	0.004283
-65.800000	0.028415	-2.193333	2.221748	-0.000931 	0.004286
-65.700000	0.028450	-2.190000	2.218450	-0.000849 	0.004289
-65.600000	0.028485	-2.186667	2.215152	-0.000767 	0.004293
-65.500000	0.028519	-2.183333	2.211852	-0.000684 	0.004296
-65.400000	0.028552	-2.180000	2.208552	-0.000601 	0.004299
-65.300000	0.028585	-2.176667	2.205252	-0.000518 	0.004302
-65.200000	0.028617	-2.173333	2.201950	-0.000435 	0.004305
-65.100000	0.028648	-2.170000	2.198648	-0.000352 	0.004309
-65.000000	0.028679	-2.166667	2.195346	-0.000268 	0.004312
-64.900000	0.028708	-2.163333	2.192041	-0.000184 	0.004315
-64.800000	0.028738	-2.160000	2.188738	-0.000100 	0.004318
-64.700000	0.028766	-2.156667	2.185433	-0.000016 	0.004322
-64.600000	0.028794	-2.153333	2.182127	0.000069 	0.004325
-64.500000	0.028820	-2.150000	2.178820	0.000154 	0.004328
-64.400000	0.028847	-2.146667	2.175514	0.000239 	0.004331
-64.300000	0.028872	-2.143333	2.172205	0.000324 	0.004335
-64.200000	0.028897	-2.140000	2.168897	0.000410 	0.004338
-64.100000	0.028921	-2.136667	2.165588	0.000496 	0.004341
-64.000000	0.028944	-2.133333	2.162277	0.000582 	0.004345
-63.900000	0.028966	-2.130000	2.158966	0.000668 	0.004348
-63.800000	0.028988	-2.126667	2.155655	0.000754 	0.004351
-63.700000	0.029009	-2.123333	2.152342	0.000841 	0.004355
-63.600000	0.029029	-2.120000	2.149029	0.000928 	0.004358
-63.500000	0.029048	-2.116667	2.145715	0.001015 	0.004361
-63.400000	0.029067	-2.113333	2.142400	0.001103 	0.004365
-63.300000	0.029085	-2.110000	2.139085	0.001190 	0.004368
-63.200000	0.029102	-2.106667	2.135769	0.001278 	0.004372
-63.100000	0.029118	-2.103333	2.132451	0.001366 	0.004375
-63.000000	0.029134	-2.100000	2.129134	0.001454 	0.004378
-62.900000	0.029148	-2.096667	2.125815	0.001543 	0.004382
-62.800000	0.029162	-2.093333	2.122495	0.001631 	0.004385
-62.700000	0.029175	-2.090000	2.119175	0.001720 	0.004389
-62.600000	0.029188	-2.086667	2.115855	0.001809 	0.004392
-62.500000	0.029199	-2.083333	2.112532	0.001899 	0.004396
-62.400000	0.029210	-2.080000	2.109210	0.001988 	0.004399
-62.300000	0.029220	-2.076667	2.105887	0.002078 	0.004403
-62.200000	0.029229	-2.073333	2.102562	0.002168 	0.004406
-62.100000	0.029237	-2.070000	2.099237	0.002258 	0.004409
-62.000000	0.029244	-2.066667	2.095911	0.002349 	0.004413
-61.900000	0.029251	-2.063333	2.092584	0.002439 	0.004416
-61.800000	0.029257	-2.060000	2.089257	0.002530 	0.004420
-61.700000	0.029261	-2.056667	2.085928	0.002621 	0.004424
-61.600000	0.029265	-2.053333	2.082598	0.002712 	0.004427
-61.500000	0.029269	-2.050000	2.079269	0.002804 	0.004431
-61.400000	0.029271	-2.046667	2.075938	0.002896 	0.004434
-61.300000	0.029272	-2.043333	2.072605	0.002987 	0.004438
-61.200000	0.029273	-2.040000	2.069273	0.003080 	0.004441
-61.100000	0.029273	-2.036667	2.065940	0.003172 	0.004445
-61.000000	0.029272	-2.033333	2.062605	0.003264 	0.004448
-60.900000	0.029270	-2.030000	2.059270	0.003357 	0.004452
-60.800000	0.029267	-2.026667	2.055934	0.003450 	0.004456
-60.700000	0.029263	-2.023333	2.052596	0.003543 	0.004459
-60.600000	0.029258	-2.020000	2.049258	0.003637 	0.004463
-60.500000	0.029253	-2.016667	2.045920	0.003730 	0.004467
-60.400000	0.029247	-2.013333	2.042580	0.003824 	0.004470
-60.300000	0.029239	-2.010000	2.039239	0.003918 	0.004474
-60.200000	0.029231	-2.006667	2.035898	0.004013 	0.004478
-60.100000	0.029222	-2.003333	2.032555	0.004107 	0.004481
-60.000000	0.029212	-2.000000	2.029212	0.004202 	0.004485
-59.900000	0.029201	-1.996667	2.025868	0.004297 	0.004489
-59.800000	0.029189	-1.993333	2.022522	0.004392 	0.004492
-59.700000	0.029176	-1.990000	2.019176	0.004487 	0.004496
-59.600000	0.029163	-1.986667	2.015830	0.004583 	0.004500
-59.500000	0.029148	-1.983333	2.012481	0.004678 	0.004504
-59.400000	0.029132	-1.980000	2.009132	0.004774 	0.004507
-59.300000	0.029116	-1.976667	2.005783	0.004870 	0.004511
-59.200000	0.029098	-1.973333	2.002431	0.004967 	0.004515
-59.100000	0.029080	-1.970000	1.999080	0.005063 	0.004519
-59.000000	0.029061	-1.966667	1.995728	0.005160 	0.004522
-58.900000	0.029040	-1.963333	1.992373	0.005257 	0.004526
-58.800000	0.029019	-1.960000	1.989019	0.005355 	0.004530
-58.700000	0.028997	-1.956667	1.985664	0.005452 	0.004534
-58.600000	0.028974	-1.953333	1.982307	0.005550 	0.004538
-58.500000	0.028949	-1.950000	1.978949	0.005648 	0.004542
-58.400000	0.028924	-1.946667	1.975591	0.005746 	0.004545
-58.300000	0.028898	-1.943333	1.972231	0.005844 	0.004549
-58.200000	0.028871	-1.940000	1.968871	0.005943 	0.004553
-58.100000	0.028843	-1.936667	1.965510	0.006042 	0.004557
-58.000000	0.028814	-1.933333	1.962147	0.006141 	0.004561
-57.900000	0.028784	-1.930000	1.958784	0.006240 	0.004565
-57.800000	0.028752	-1.926667	1.955419	0.006339 	0.004569
-57.700000	0.028720	-1.923333	1.952053	0.006439 	0.004573
-57.600000	0.028687	-1.920000	1.948687	0.006539 	0.004577
-57.500000	0.028653	-1.916667	1.945320	0.006639 	0.004581
-57.400000	0.028618	-1.913333	1.941951	0.006739 	0.004585
-57.300000	0.028581	-1.910000	1.938581	0.006840 	0.004589
-57.200000	0.028544	-1.906667	1.935211	0.006941 	0.004593
-57.100000	0.028506	-1.903333	1.931839	0.007042 	0.004597
-57.000000	0.028467	-1.900000	1.928467	0.007143 	0.004601
-56.900000	0.028426	-1.896667	1.925093	0.007244 	0.004605
-56.800000	0.028385	-1.893333	1.921718	0.007346 	0.004609
-56.700000	0.028342	-1.890000	1.918342	0.007448 	0.004613
-56.600000	0.028299	-1.886667	1.914966	0.007550 	0.004617
-56.500000	0.028254	-1.883333	1.911587	0.007653 	0.004621
-56.400000	0.028209	-1.880000	1.908209	0.007755 	0.004625
-56.300000	0.028162	-1.876667	1.904829	0.007858 	0.004629
-56.200000	0.028114	-1.873333	1.901447	0.007961 	0.004633
-56.100000	0.028065	-1.870000	1.898065	0.008064 	0.004637
-56.000000	0.028015	-1.866667	1.894682	0.008168 	0.004641
-55.900000	0.027964	-1.863333	1.891297	0.008271 	0.004646
-55.800000	0.027912	-1.860000	1.887912	0.008375 	0.004650
-55.700000	0.027859	-1.856667	1.884526	0.008480 	0.004654
-55.600000	0.027804	-1.853333	1.881137	0.008584 	0.004658
-55.500000	0.027749	-1.850000	1.877749	0.008689 	0.004662
-55.400000	0.027693	-1.846667	1.874360	0.008793 	0.004666
-55.300000	0.027635	-1.843333	1.870968	0.008898 	0.004671
-55.200000	0.027576	-1.840000	1.867576	0.009004 	0.004675
-55.100000	0.027516	-1.836667	1.864183	0.009109 	0.004679
-55.000000	0.027455	-1.833333	1.860788	0.009215 	0.004683
-54.900000	0.027393	-1.830000	1.857393	0.009321 	0.004688
-54.800000	0.027330	-1.826667	1.853997	0.009427 	0.004692
-54.700000	0.027266	-1.823333	1.850599	0.009533 	0.004696
-54.600000	0.027200	-1.820000	1.847200	0.009640 	0.004701
-54.500000	0.027134	-1.816667	1.843801	0.009746 	0.004705
-54.400000	0.027066	-1.813333	1.840399	0.009853 	0.004709
-54.300000	0.026997	-1.810000	1.836997	0.009961 	0.004714
-54.200000	0.026927	-1.806667	1.833594	0.010068 	0.004718
-54.100000	0.026856	-1.803333	1.830189	0.010176 	0.004722
-54.000000	0.026784	-1.800000	1.826784	0.010283 	0.004727
-53.900000	0.026710	-1.796667	1.823377	0.010391 	0.004731
-53.800000	0.026636	-1.793333	1.819969	0.010499 	0.004736
-53.700000	0.026560	-1.790000	1.816560	0.010608 	0.004740
-53.600000	0.026483	-1.786667	1.813150	0.010716 	0.004745
-53.500000	0.026405	-1.783333	1.809738	0.010825 	0.004749
-53.400000	0.026326	-1.780000	1.806326	0.010934 	0.004754
-53.300000	0.026245	-1.776667	1.802912	0.011043 	0.004758
-53.200000	0.026164	-1.773333	1.799497	0.011152 	0.004763
-53.100000	0.026081	-1.770000	1.796081	0.011262 	0.004767
-53.000000	0.025997	-1.766667	1.792664	0.011371 	0.004772
-52.900000	0.025912	-1.763333	1.789245	0.011481 	0.004776
-52.800000	0.025826	-1.760000	1.785826	0.011591 	0.004781
-52.700000	0.025738	-1.756667	1.782405	0.011701 	0.004785
-52.600000	0.025650	-1.753333	1.778983	0.011811 	0.004790
-52.500000	0.025560	-1.750000	1.775560	0.011922 	0.004795
-52.400000	0.025469	-1.746667	1.772136	0.012032 	0.004799
-52.300000	0.025377	-1.743333	1.768710	0.012143 	0.004804
-52.200000	0.025284	-1.740000	1.765284	0.012254 	0.004809
-52.100000	0.025189	-1.736667	1.761856	0.012365 	0.004813
-52.000000	0.025093	-1.733333	1.758426	0.012476 	0.004818
-51.900000	0.024997	-1.730000	1.754997	0.012587 	0.004823
-51.800000	0.024898	-1.726667	1.751565	0.012698 	0.004827
-51.700000	0.024799	-1.723333	1.748132	0.012810 	0.004832
-51.600000	0.024699	-1.720000	1.744699	0.012921 	0.004837
-51.500000	0.024597	-1.716667	1.741264	0.013033 	0.004842
-51.400000	0.024494	-1.713333	1.737827	0.013145 	0.004846
-51.300000	0.024390	-1.710000	1.734390	0.013256 	0.004851
-51.200000	0.024285	-1.706667	1.730952	0.013368 	0.004856
-51.100000	0.024178	-1.703333	1.727511	0.013480 	0.004861
-51.000000	0.024071	-1.700000	1.724071	0.013592 	0.004866
-50.900000	0.023962	-1.696667	1.720629	0.013704 	0.004870
-50.800000	0.023852	-1.693333	1.717185	0.013816 	0.004875
-50.700000	0.023741	-1.690000	1.713741	0.013929 	0.004880
-50.600000	0.023628	-1.686667	1.710295	0.014041 	0.004885
-50.500000	0.023515	-1.683333	1.706848	0.014153 	0.004890
-50.400000	0.023400	-1.680000	1.703400	0.014265 	0.004895
-50.300000	0.023284	-1.676667	1.699951	0.014378 	0.004900
-50.200000	0.023167	-1.673333	1.696500	0.014490 	0.004905
-50.100000	0.023048	-1.670000	1.693048	0.014602 	0.004910
-50.000000	0.022929	-1.666667	1.689596	0.014715 	0.004915
-49.900000	0.022808	-1.663333	1.686141	0.014827 	0.004920
-49.800000	0.022686	-1.660000	1.682686	0.014939 	0.004925
-49.700000	0.022562	-1.656667	1.679229	0.015052 	0.004930
-49.600000	0.022438	-1.653333	1.675771	0.015164 	0.004935
-49.500000	0.022312	-1.650000	1.672312	0.015276 	0.004940
-49.400000	0.022186	-1.646667	1.668853	0.015388 	0.004945
-49.300000	0.022058	-1.643333	1.665391	0.015500 	0.004951
-49.200000	0.021928	-1.640000	1.661928	0.015612 	0.004956