VARIABLES = X,Ksi,B,H,U,tau 
ZONE T="Time 35.000000", I=1100, DATAPACKING=POINT
-100.000000	0.012486	-3.333333	3.345819	-0.026915 	0.003493
-99.900000	0.004704	-3.330000	3.334704	-0.013805 	0.003499
-99.800000	0.007862	-3.326667	3.334529	-0.019445 	0.003499
-99.700000	0.006364	-3.323333	3.329697	-0.017100 	0.003501
-99.600000	0.006849	-3.320000	3.326849	-0.018155 	0.003503
-99.500000	0.006489	-3.316667	3.323156	-0.017762 	0.003505
-99.400000	0.006489	-3.313333	3.319822	-0.017985 	0.003506
-99.300000	0.006335	-3.310000	3.316335	-0.017945 	0.003508
-99.200000	0.006246	-3.306667	3.312913	-0.018017 	0.003510
-99.100000	0.006130	-3.303333	3.309463	-0.018041 	0.003512
-99.000000	0.006025	-3.300000	3.306025	-0.018084 	0.003514
-98.900000	0.005914	-3.296667	3.302581	-0.018119 	0.003516
-98.800000	0.005806	-3.293333	3.299139	-0.018157 	0.003517
-98.700000	0.005696	-3.290000	3.295696	-0.018194 	0.003519
-98.600000	0.005587	-3.286667	3.292254	-0.018231 	0.003521
-98.500000	0.005477	-3.283333	3.288810	-0.018267 	0.003523
-98.400000	0.005368	-3.280000	3.285368	-0.018303 	0.003525
-98.300000	0.005258	-3.276667	3.281925	-0.018338 	0.003527
-98.200000	0.005148	-3.273333	3.278481	-0.018374 	0.003528
-98.100000	0.005037	-3.270000	3.275037	-0.018409 	0.003530
-98.000000	0.004927	-3.266667	3.271594	-0.018443 	0.003532
-97.900000	0.004816	-3.263333	3.268149	-0.018478 	0.003534
-97.800000	0.004705	-3.260000	3.264705	-0.018512 	0.003536
-97.700000	0.004594	-3.256667	3.261261	-0.018546 	0.003538
-97.600000	0.004483	-3.253333	3.257816	-0.018579 	0.003540
-97.500000	0.004372	-3.250000	3.254372	-0.018612 	0.003541
-97.400000	0.004260	-3.246667	3.250927	-0.018645 	0.003543
-97.300000	0.004148	-3.243333	3.247481	-0.018677 	0.003545
-97.200000	0.004036	-3.240000	3.244036	-0.018709 	0.003547
-97.100000	0.003924	-3.236667	3.240591	-0.018741 	0.003549
-97.000000	0.003812	-3.233333	3.237145	-0.018772 	0.003551
-96.900000	0.003700	-3.230000	3.233700	-0.018804 	0.003553
-96.800000	0.003587	-3.226667	3.230254	-0.018834 	0.003555
-96.700000	0.003475	-3.223333	3.226808	-0.018865 	0.003557
-96.600000	0.003362	-3.220000	3.223362	-0.018895 	0.003558
-96.500000	0.003249	-3.216667	3.219916	-0.018925 	0.003560
-96.400000	0.003136	-3.213333	3.216469	-0.018954 	0.003562
-96.300000	0.003023	-3.210000	3.213023	-0.018983 	0.003564
-96.200000	0.002909	-3.206667	3.209576	-0.019012 	0.003566
-96.100000	0.002796	-3.203333	3.206129	-0.019041 	0.003568
-96.000000	0.002682	-3.200000	3.202682	-0.019069 	0.003570
-95.900000	0.002569	-3.196667	3.199236	-0.019096 	0.003572
-95.800000	0.002455	-3.193333	3.195788	-0.019124 	0.003574
-95.700000	0.002341	-3.190000	3.192341	-0.019151 	0.003576
-95.600000	0.002227	-3.186667	3.188894	-0.019177 	0.003578
-95.500000	0.002112	-3.183333	3.185445	-0.019204 	0.003580
-95.400000	0.001998	-3.180000	3.181998	-0.019230 	0.003582
-95.300000	0.001884	-3.176667	3.178551	-0.019255 	0.003583
-95.200000	0.001769	-3.173333	3.175102	-0.019281 	0.003585
-95.100000	0.001654	-3.170000	3.171654	-0.019306 	0.003587
-95.000000	0.001540	-3.166667	3.168207	-0.019330 	0.003589
-94.900000	0.001425	-3.163333	3.164758	-0.019354 	0.003591
-94.800000	0.001310	-3.160000	3.161310	-0.019378 	0.003593
-94.700000	0.001195	-3.156667	3.157862	-0.019402 	0.003595
-94.600000	0.001080	-3.153333	3.154413	-0.019425 	0.003597
-94.500000	0.000964	-3.150000	3.150964	-0.019447 	0.003599
-94.400000	0.000849	-3.146667	3.147516	-0.019470 	0.003601
-94.300000	0.000734	-3.143333	3.144067	-0.019492 	0.003603
-94.200000	0.000618	-3.140000	3.140618	-0.019513 	0.003605
-94.100000	0.000502	-3.136667	3.137169	-0.019535 	0.003607
-94.000000	0.000387	-3.133333	3.133720	-0.019555 	0.003609
-93.900000	0.000271	-3.130000	3.130271	-0.019576 	0.003611
-93.800000	0.000155	-3.126667	3.126822	-0.019596 	0.003613
-93.700000	0.000039	-3.123333	3.123372	-0.019616 	0.003615
-93.600000	-0.000077	-3.120000	3.119923	-0.019635 	0.003617
-93.500000	-0.000193	-3.116667	3.116474	-0.019654 	0.003619
-93.400000	-0.000309	-3.113333	3.113024	-0.019673 	0.003621
-93.300000	-0.000425	-3.110000	3.109575	-0.019691 	0.003623
-93.200000	-0.000542	-3.106667	3.106125	-0.019708 	0.003625
-93.100000	-0.000658	-3.103333	3.102675	-0.019726 	0.003627
-93.000000	-0.000774	-3.100000	3.099226	-0.019743 	0.003629
-92.900000	-0.000891	-3.096667	3.095776	-0.019759 	0.003631
-92.800000	-0.001007	-3.093333	3.092326	-0.019776 	0.003633
-92.700000	-0.001124	-3.090000	3.088876	-0.019791 	0.003635
-92.600000	-0.001240	-3.086667	3.085427	-0.019807 	0.003637
-92.500000	-0.001357	-3.083333	3.081976	-0.019822 	0.003639
-92.400000	-0.001473	-3.080000	3.078527	-0.019836 	0.003641
-92.300000	-0.001590	-3.076667	3.075077	-0.019850 	0.003643
-92.200000	-0.001707	-3.073333	3.071626	-0.019864 	0.003645
-92.100000	-0.001824	-3.070000	3.068176	-0.019877 	0.003647
-92.000000	-0.001940	-3.066667	3.064727	-0.019890 	0.003649
-91.900000	-0.002057	-3.063333	3.061276	-0.019903 	0.003651
-91.800000	-0.002174	-3.060000	3.057826	-0.019915 	0.003654
-91.700000	-0.002291	-3.056667	3.054376	-0.019927 	0.003656
-91.600000	-0.002408	-3.053333	3.050925	-0.019938 	0.003658
-91.500000	-0.002525	-3.050000	3.047475	-0.019949 	0.003660
-91.400000	-0.002642	-3.046667	3.044025	-0.019959 	0.003662
-91.300000	-0.002758	-3.043333	3.040575	-0.019969 	0.003664
-91.200000	-0.002875	-3.040000	3.037125	-0.019978 	0.003666
-91.100000	-0.002992	-3.036667	3.033675	-0.019988 	0.003668
-91.000000	-0.003109	-3.033333	3.030224	-0.019996 	0.003670
-90.900000	-0.003226	-3.030000	3.026774	-0.020004 	0.003672
-90.800000	-0.003343	-3.026667	3.023324	-0.020012 	0.003674
-90.700000	-0.003460	-3.023333	3.019873	-0.020020 	0.003676
-90.600000	-0.003577	-3.020000	3.016423	-0.020027 	0.003679
-90.500000	-0.003694	-3.016667	3.012973	-0.020033 	0.003681
-90.400000	-0.003811	-3.013333	3.009522	-0.020039 	0.003683
-90.300000	-0.003928	-3.010000	3.006072	-0.020045 	0.003685
-90.200000	-0.004045	-3.006667	3.002622	-0.020050 	0.003687
-90.100000	-0.004161	-3.003333	2.999172	-0.020054 	0.003689
-90.000000	-0.004278	-3.000000	2.995722	-0.020059 	0.003691
-89.900000	-0.004395	-2.996667	2.992272	-0.020062 	0.003693
-89.800000	-0.004512	-2.993333	2.988821	-0.020066 	0.003695
-89.700000	-0.004629	-2.990000	2.985371	-0.020069 	0.003698
-89.600000	-0.004745	-2.986667	2.981922	-0.020071 	0.003700
-89.500000	-0.004862	-2.983333	2.978471	-0.020073 	0.003702
-89.400000	-0.004979	-2.980000	2.975021	-0.020075 	0.003704
-89.300000	-0.005095	-2.976667	2.971572	-0.020076 	0.003706
-89.200000	-0.005212	-2.973333	2.968121	-0.020076 	0.003708
-89.100000	-0.005328	-2.970000	2.964672	-0.020076 	0.003710
-89.000000	-0.005445	-2.966667	2.961222	-0.020076 	0.003713
-88.900000	-0.005561	-2.963333	2.957772	-0.020075 	0.003715
-88.800000	-0.005677	-2.960000	2.954323	-0.020074 	0.003717
-88.700000	-0.005793	-2.956667	2.950874	-0.020072 	0.003719
-88.600000	-0.005910	-2.953333	2.947423	-0.020070 	0.003721
-88.500000	-0.006026	-2.950000	2.943974	-0.020067 	0.003723
-88.400000	-0.006142	-2.946667	2.940525	-0.020064 	0.003726
-88.300000	-0.006258	-2.943333	2.937075	-0.020060 	0.003728
-88.200000	-0.006374	-2.940000	2.933626	-0.020056 	0.003730
-88.100000	-0.006490	-2.936667	2.930177	-0.020051 	0.003732
-88.000000	-0.006605	-2.933333	2.926728	-0.020046 	0.003734
-87.900000	-0.006721	-2.930000	2.923279	-0.020040 	0.003737
-87.800000	-0.006837	-2.926667	2.919830	-0.020034 	0.003739
-87.700000	-0.006952	-2.923333	2.916381	-0.020027 	0.003741
-87.600000	-0.007067	-2.920000	2.912933	-0.020020 	0.003743
-87.500000	-0.007183	-2.916667	2.909484	-0.020012 	0.003745
-87.400000	-0.007298	-2.913333	2.906035	-0.020004 	0.003748
-87.300000	-0.007413	-2.910000	2.902587	-0.019996 	0.003750
-87.200000	-0.007528	-2.906667	2.899139	-0.019986 	0.003752
-87.100000	-0.007643	-2.903333	2.895690	-0.019977 	0.003754
-87.000000	-0.007758	-2.900000	2.892242	-0.019967 	0.003757
-86.900000	-0.007872	-2.896667	2.888795	-0.019956 	0.003759
-86.800000	-0.007987	-2.893333	2.885346	-0.019945 	0.003761
-86.700000	-0.008101	-2.890000	2.881899	-0.019933 	0.003763
-86.600000	-0.008216	-2.886667	2.878451	-0.019921 	0.003766
-86.500000	-0.008330	-2.883333	2.875003	-0.019908 	0.003768
-86.400000	-0.008444	-2.880000	2.871556	-0.019895 	0.003770
-86.300000	-0.008558	-2.876667	2.868109	-0.019881 	0.003772
-86.200000	-0.008672	-2.873333	2.864661	-0.019867 	0.003775
-86.100000	-0.008785	-2.870000	2.861215	-0.019852 	0.003777
-86.000000	-0.008899	-2.866667	2.857768	-0.019837 	0.003779
-85.900000	-0.009012	-2.863333	2.854321	-0.019821 	0.003782
-85.800000	-0.009126	-2.860000	2.850874	-0.019805 	0.003784
-85.700000	-0.009239	-2.856667	2.847428	-0.019788 	0.003786
-85.600000	-0.009352	-2.853333	2.843981	-0.019770 	0.003788
-85.500000	-0.009464	-2.850000	2.840536	-0.019752 	0.003791
-85.400000	-0.009577	-2.846667	2.837090	-0.019734 	0.003793
-85.300000	-0.009690	-2.843333	2.833643	-0.019715 	0.003795
-85.200000	-0.009802	-2.840000	2.830198	-0.019695 	0.003798
-85.100000	-0.009914	-2.836667	2.826753	-0.019675 	0.003800
-85.000000	-0.010026	-2.833333	2.823307	-0.019654 	0.003802
-84.900000	-0.010138	-2.830000	2.819862	-0.019633 	0.003805
-84.800000	-0.010249	-2.826667	2.816418	-0.019611 	0.003807
-84.700000	-0.010361	-2.823333	2.812972	-0.019589 	0.003809
-84.600000	-0.010472	-2.820000	2.809528	-0.019566 	0.003812
-84.500000	-0.010583	-2.816667	2.806084	-0.019543 	0.003814
-84.400000	-0.010694	-2.813333	2.802639	-0.019519 	0.003816
-84.300000	-0.010805	-2.810000	2.799195	-0.019495 	0.003819
-84.200000	-0.010915	-2.806667	2.795752	-0.019470 	0.003821
-84.100000	-0.011026	-2.803333	2.792307	-0.019444 	0.003823
-84.000000	-0.011136	-2.800000	2.788864	-0.019418 	0.003826
-83.900000	-0.011246	-2.796667	2.785421	-0.019391 	0.003828
-83.800000	-0.011355	-2.793333	2.781978	-0.019364 	0.003830
-83.700000	-0.011465	-2.790000	2.778535	-0.019336 	0.003833
-83.600000	-0.011574	-2.786667	2.775093	-0.019308 	0.003835
-83.500000	-0.011683	-2.783333	2.771650	-0.019279 	0.003837
-83.400000	-0.011792	-2.780000	2.768208	-0.019249 	0.003840
-83.300000	-0.011901	-2.776667	2.764766	-0.019219 	0.003842
-83.200000	-0.012009	-2.773333	2.761324	-0.019189 	0.003845
-83.100000	-0.012117	-2.770000	2.757883	-0.019158 	0.003847
-83.000000	-0.012225	-2.766667	2.754442	-0.019126 	0.003849
-82.900000	-0.012333	-2.763333	2.751000	-0.019093 	0.003852
-82.800000	-0.012441	-2.760000	2.747559	-0.019061 	0.003854
-82.700000	-0.012548	-2.756667	2.744119	-0.019027 	0.003857
-82.600000	-0.012655	-2.753333	2.740678	-0.018993 	0.003859
-82.500000	-0.012761	-2.750000	2.737239	-0.018958 	0.003862
-82.400000	-0.012868	-2.746667	2.733799	-0.018923 	0.003864
-82.300000	-0.012974	-2.743333	2.730359	-0.018887 	0.003866
-82.200000	-0.013080	-2.740000	2.726920	-0.018851 	0.003869
-82.100000	-0.013186	-2.736667	2.723481	-0.018814 	0.003871
-82.000000	-0.013291	-2.733333	2.720042	-0.018777 	0.003874
-81.900000	-0.013397	-2.730000	2.716603	-0.018738 	0.003876
-81.800000	-0.013502	-2.726667	2.713165	-0.018700 	0.003879
-81.700000	-0.013606	-2.723333	2.709727	-0.018660 	0.003881
-81.600000	-0.013711	-2.720000	2.706289	-0.018621 	0.003884
-81.500000	-0.013815	-2.716667	2.702852	-0.018580 	0.003886
-81.400000	-0.013919	-2.713333	2.699414	-0.018539 	0.003889
-81.300000	-0.014022	-2.710000	2.695978	-0.018497 	0.003891
-81.200000	-0.014125	-2.706667	2.692542	-0.018455 	0.003893
-81.100000	-0.014228	-2.703333	2.689105	-0.018412 	0.003896
-81.000000	-0.014331	-2.700000	2.685669	-0.018369 	0.003898
-80.900000	-0.014433	-2.696667	2.682234	-0.018325 	0.003901
-80.800000	-0.014535	-2.693333	2.678798	-0.018280 	0.003903
-80.700000	-0.014637	-2.690000	2.675363	-0.018235 	0.003906
-80.600000	-0.014739	-2.686667	2.671928	-0.018189 	0.003908
-80.500000	-0.014840	-2.683333	2.668493	-0.018143 	0.003911
-80.400000	-0.014941	-2.680000	2.665059	-0.018096 	0.003913
-80.300000	-0.015041	-2.676667	2.661626	-0.018048 	0.003916
-80.200000	-0.015141	-2.673333	2.658192	-0.018000 	0.003919
-80.100000	-0.015241	-2.670000	2.654759	-0.017951 	0.003921
-80.000000	-0.015341	-2.666667	2.651326	-0.017902 	0.003924
-79.900000	-0.015440	-2.663333	2.647893	-0.017852 	0.003926
-79.800000	-0.015539	-2.660000	2.644461	-0.017801 	0.003929
-79.700000	-0.015638	-2.656667	2.641029	-0.017750 	0.003931
-79.600000	-0.015736	-2.653333	2.637597	-0.017698 	0.003934
-79.500000	-0.015834	-2.650000	2.634166	-0.017645 	0.003936
-79.400000	-0.015931	-2.646667	2.630736	-0.017592 	0.003939
-79.300000	-0.016028	-2.643333	2.627305	-0.017539 	0.003942
-79.200000	-0.016125	-2.640000	2.623875	-0.017484 	0.003944
-79.100000	-0.016222	-2.636667	2.620445	-0.017429 	0.003947
-79.000000	-0.016318	-2.633333	2.617015	-0.017374 	0.003949
-78.900000	-0.016414	-2.630000	2.613586	-0.017318 	0.003952
-78.800000	-0.016509	-2.626667	2.610158	-0.017261 	0.003954
-78.700000	-0.016604	-2.623333	2.606729	-0.017203 	0.003957
-78.600000	-0.016699	-2.620000	2.603301	-0.017145 	0.003960
-78.500000	-0.016793	-2.616667	2.599874	-0.017087 	0.003962
-78.400000	-0.016887	-2.613333	2.596446	-0.017028 	0.003965
-78.300000	-0.016980	-2.610000	2.593020	-0.016968 	0.003967
-78.200000	-0.017074	-2.606667	2.589593	-0.016907 	0.003970
-78.100000	-0.017166	-2.603333	2.586167	-0.016846 	0.003973
-78.000000	-0.017259	-2.600000	2.582741	-0.016784 	0.003975
-77.900000	-0.017351	-2.596667	2.579316	-0.016722 	0.003978
-77.800000	-0.017442	-2.593333	2.575891	-0.016659 	0.003981
-77.700000	-0.017534	-2.590000	2.572466	-0.016595 	0.003983
-77.600000	-0.017624	-2.586667	2.569043	-0.016531 	0.003986
-77.500000	-0.017715	-2.583333	2.565618	-0.016466 	0.003989
-77.400000	-0.017805	-2.580000	2.562195	-0.016401 	0.003991
-77.300000	-0.017894	-2.576667	2.558773	-0.016334 	0.003994
-77.200000	-0.017983	-2.573333	2.555350	-0.016268 	0.003997
-77.100000	-0.018072	-2.570000	2.551928	-0.016200 	0.003999
-77.000000	-0.018160	-2.566667	2.548507	-0.016132 	0.004002
-76.900000	-0.018248	-2.563333	2.545085	-0.016064 	0.004005
-76.800000	-0.018336	-2.560000	2.541664	-0.015994 	0.004007
-76.700000	-0.018423	-2.556667	2.538244	-0.015924 	0.004010
-76.600000	-0.018509	-2.553333	2.534824	-0.015854 	0.004013
-76.500000	-0.018596	-2.550000	2.531404	-0.015783 	0.004015
-76.400000	-0.018681	-2.546667	2.527986	-0.015711 	0.004018
-76.300000	-0.018767	-2.543333	2.524566	-0.015638 	0.004021
-76.200000	-0.018851	-2.540000	2.521149	-0.015565 	0.004024
-76.100000	-0.018936	-2.536667	2.517731	-0.015492 	0.004026
-76.000000	-0.019020	-2.533333	2.514313	-0.015417 	0.004029
-75.900000	-0.019103	-2.530000	2.510897	-0.015342 	0.004032
-75.800000	-0.019186	-2.526667	2.507481	-0.015267 	0.004035
-75.700000	-0.019269	-2.523333	2.504064	-0.015190 	0.004037
-75.600000	-0.019351	-2.520000	2.500649	-0.015114 	0.004040
-75.500000	-0.019432	-2.516667	2.497235	-0.015036 	0.004043
-75.400000	-0.019514	-2.513333	2.493819	-0.014958 	0.004046
-75.300000	-0.019594	-2.510000	2.490406	-0.014879 	0.004048
-75.200000	-0.019674	-2.506667	2.486993	-0.014800 	0.004051
-75.100000	-0.019754	-2.503333	2.483579	-0.014720 	0.004054
-75.000000	-0.019833	-2.500000	2.480167	-0.014639 	0.004057
-74.900000	-0.019912	-2.496667	2.476755	-0.014558 	0.004060
-74.800000	-0.019990	-2.493333	2.473343	-0.014476 	0.004062
-74.700000	-0.020068	-2.490000	2.469932	-0.014393 	0.004065
-74.600000	-0.020145	-2.486667	2.466522	-0.014310 	0.004068
-74.500000	-0.020222	-2.483333	2.463111	-0.014226 	0.004071
-74.400000	-0.020298	-2.480000	2.459702	-0.014141 	0.004074
-74.300000	-0.020374	-2.476667	2.456293	-0.014056 	0.004076
-74.200000	-0.020449	-2.473333	2.452884	-0.013970 	0.004079
-74.100000	-0.020524	-2.470000	2.449476	-0.013884 	0.004082
-74.000000	-0.020598	-2.466667	2.446069	-0.013797 	0.004085
-73.900000	-0.020672	-2.463333	2.442661	-0.013709 	0.004088
-73.800000	-0.020745	-2.460000	2.439255	-0.013621 	0.004091
-73.700000	-0.020818	-2.456667	2.435849	-0.013532 	0.004093
-73.600000	-0.020890	-2.453333	2.432443	-0.013442 	0.004096
-73.500000	-0.020962	-2.450000	2.429038	-0.013352 	0.004099
-73.400000	-0.021033	-2.446667	2.425634	-0.013261 	0.004102
-73.300000	-0.021103	-2.443333	2.422230	-0.013169 	0.004105
-73.200000	-0.021173	-2.440000	2.418827	-0.013077 	0.004108
-73.100000	-0.021243	-2.436667	2.415424	-0.012984 	0.004111
-73.000000	-0.021311	-2.433333	2.412022	-0.012891 	0.004114
-72.900000	-0.021380	-2.430000	2.408620	-0.012797 	0.004117
-72.800000	-0.021448	-2.426667	2.405219	-0.012702 	0.004119
-72.700000	-0.021515	-2.423333	2.401818	-0.012607 	0.004122
-72.600000	-0.021581	-2.420000	2.398419	-0.012511 	0.004125
-72.500000	-0.021648	-2.416667	2.395019	-0.012414 	0.004128
-72.400000	-0.021713	-2.413333	2.391620	-0.012317 	0.004131
-72.300000	-0.021778	-2.410000	2.388222	-0.012219 	0.004134
-72.200000	-0.021843	-2.406667	2.384824	-0.012120 	0.004137
-72.100000	-0.021906	-2.403333	2.381427	-0.012021 	0.004140
-72.000000	-0.021970	-2.400000	2.378030	-0.011921 	0.004143
-71.900000	-0.022032	-2.396667	2.374635	-0.011821 	0.004146
-71.800000	-0.022094	-2.393333	2.371239	-0.011720 	0.004149
-71.700000	-0.022156	-2.390000	2.367844	-0.011618 	0.004152
-71.600000	-0.022217	-2.386667	2.364450	-0.011515 	0.004155
-71.500000	-0.022277	-2.383333	2.361056	-0.011412 	0.004158
-71.400000	-0.022337	-2.380000	2.357663	-0.011309 	0.004161
-71.300000	-0.022396	-2.376667	2.354271	-0.011205 	0.004164
-71.200000	-0.022455	-2.373333	2.350878	-0.011100 	0.004167
-71.100000	-0.022513	-2.370000	2.347487	-0.010994 	0.004170
-71.000000	-0.022570	-2.366667	2.344097	-0.010888 	0.004173
-70.900000	-0.022627	-2.363333	2.340706	-0.010781 	0.004176
-70.800000	-0.022683	-2.360000	2.337317	-0.010674 	0.004179
-70.700000	-0.022738	-2.356667	2.333929	-0.010566 	0.004182
-70.600000	-0.022793	-2.353333	2.330540	-0.010457 	0.004185
-70.500000	-0.022848	-2.350000	2.327152	-0.010348 	0.004188
-70.400000	-0.022901	-2.346667	2.323766	-0.010238 	0.004191
-70.300000	-0.022954	-2.343333	2.320379	-0.010127 	0.004194
-70.200000	-0.023007	-2.340000	2.316993	-0.010016 	0.004197
-70.100000	-0.023059	-2.336667	2.313608	-0.009904 	0.004200
-70.000000	-0.023110	-2.333333	2.310223	-0.009792 	0.004203
-69.900000	-0.023160	-2.330000	2.306840	-0.009679 	0.004206
-69.800000	-0.023210	-2.326667	2.303457	-0.009565 	0.004209
-69.700000	-0.023259	-2.323333	2.300074	-0.009451 	0.004213
-69.600000	-0.023308	-2.320000	2.296692	-0.009336 	0.004216
-69.500000	-0.023356	-2.316667	2.293311	-0.009221 	0.004219
-69.400000	-0.023403	-2.313333	2.289930	-0.009105 	0.004222
-69.300000	-0.023450	-2.310000	2.286550	-0.008988 	0.004225
-69.200000	-0.023496	-2.306667	2.283171	-0.008871 	0.004228
-69.100000	-0.023541	-2.303333	2.279792	-0.008753 	0.004231
-69.000000	-0.023586	-2.300000	2.276414	-0.008634 	0.004234
-68.900000	-0.023630	-2.296667	2.273037	-0.008515 	0.004238
-68.800000	-0.023673	-2.293333	2.269660	-0.008395 	0.004241
-68.700000	-0.023716	-2.290000	2.266284	-0.008275 	0.004244
-68.600000	-0.023758	-2.286667	2.262909	-0.008154 	0.004247
-68.500000	-0.023799	-2.283333	2.259534	-0.008032 	0.004250
-68.400000	-0.023840	-2.280000	2.256160	-0.007910 	0.004253
-68.300000	-0.023880	-2.276667	2.252787	-0.007787 	0.004257
-68.200000	-0.023919	-2.273333	2.249414	-0.007664 	0.004260
-68.100000	-0.023957	-2.270000	2.246043	-0.007540 	0.004263
-68.000000	-0.023995	-2.266667	2.242672	-0.007415 	0.004266
-67.900000	-0.024033	-2.263333	2.239300	-0.007290 	0.004269
-67.800000	-0.024069	-2.260000	2.235931	-0.007164 	0.004273
-67.700000	-0.024105	-2.256667	2.232562	-0.007038 	0.004276
-67.600000	-0.024140	-2.253333	2.229193	-0.006911 	0.004279
-67.500000	-0.024174	-2.250000	2.225826	-0.006783 	0.004282
-67.400000	-0.024208	-2.246667	2.222459	-0.006655 	0.004285
-67.300000	-0.024241	-2.243333	2.219092	-0.006526 	0.004289
-67.200000	-0.024273	-2.240000	2.215727	-0.006397 	0.004292
-67.100000	-0.024305	-2.236667	2.212362	-0.006267 	0.004295
-67.000000	-0.024336	-2.233333	2.208997	-0.006136 	0.004299
-66.900000	-0.024366	-2.230000	2.205634	-0.006005 	0.004302
-66.800000	-0.024395	-2.226667	2.202272	-0.005873 	0.004305
-66.700000	-0.024424	-2.223333	2.198909	-0.005741 	0.004308
-66.600000	-0.024452	-2.220000	2.195548	-0.005608 	0.004312
-66.500000	-0.024479	-2.216667	2.192188	-0.005475 	0.004315
-66.400000	-0.024506	-2.213333	2.188827	-0.005341 	0.004318
-66.300000	-0.024532	-2.210000	2.185468	-0.005206 	0.004322
-66.200000	-0.024557	-2.206667	2.182110	-0.005071 	0.004325
-66.100000	-0.024581	-2.203333	2.178752	-0.004935 	0.004328
-66.000000	-0.024605	-2.200000	2.175395	-0.004799 	0.004332
-65.900000	-0.024628	-2.196667	2.172039	-0.004662 	0.004335
-65.800000	-0.024650	-2.193333	2.168683	-0.004525 	0.004338
-65.700000	-0.024671	-2.190000	2.165329	-0.004387 	0.004342
-65.600000	-0.024692	-2.186667	2.161975	-0.004248 	0.004345
-65.500000	-0.024712	-2.183333	2.158621	-0.004109 	0.004348
-65.400000	-0.024731	-2.180000	2.155269	-0.003969 	0.004352
-65.300000	-0.024749	-2.176667	2.151918	-0.003829 	0.004355
-65.200000	-0.024767	-2.173333	2.148566	-0.003688 	0.004359
-65.100000	-0.024784	-2.170000	2.145216	-0.003547 	0.004362
-65.000000	-0.024800	-2.166667	2.141867	-0.003405 	0.004365
-64.900000	-0.024815	-2.163333	2.138518	-0.003263 	0.004369
-64.800000	-0.024829	-2.160000	2.135171	-0.003120 	0.004372
-64.700000	-0.024843	-2.156667	2.131824	-0.002976 	0.004376
-64.600000	-0.024856	-2.153333	2.128477	-0.002832 	0.004379
-64.500000	-0.024868	-2.150000	2.125132	-0.002688 	0.004383
-64.400000	-0.024880	-2.146667	2.121787	-0.002543 	0.004386
-64.300000	-0.024891	-2.143333	2.118442	-0.002397 	0.004389
-64.200000	-0.024901	-2.140000	2.115099	-0.002251 	0.004393
-64.100000	-0.024910	-2.136667	2.111757	-0.002104 	0.004396
-64.000000	-0.024918	-2.133333	2.108415	-0.001957 	0.004400
-63.900000	-0.024926	-2.130000	2.105074	-0.001809 	0.004403
-63.800000	-0.024932	-2.126667	2.101735	-0.001661 	0.004407
-63.700000	-0.024938	-2.123333	2.098395	-0.001512 	0.004410
-63.600000	-0.024943	-2.120000	2.095057	-0.001363 	0.004414
-63.500000	-0.024948	-2.116667	2.091719	-0.001213 	0.004417
-63.400000	-0.024951	-2.113333	2.088382	-0.001063 	0.004421
-63.300000	-0.024954	-2.110000	2.085046	-0.000912 	0.004424
-63.200000	-0.024956	-2.106667	2.081711	-0.000761 	0.004428
-63.100000	-0.024957	-2.103333	2.078376	-0.000609 	0.004432
-63.000000	-0.024958	-2.100000	2.075042	-0.000456 	0.004435
-62.900000	-0.024957	-2.096667	2.071710	-0.000303 	0.004439
-62.800000	-0.024956	-2.093333	2.068377	-0.000150 	0.004442
-62.700000	-0.024954	-2.090000	2.065046	0.000004 	0.004446
-62.600000	-0.024951	-2.086667	2.061716	0.000158 	0.004449
-62.500000	-0.024948	-2.083333	2.058385	0.000313 	0.004453
-62.400000	-0.024943	-2.080000	2.055057	0.000468 	0.004457
-62.300000	-0.024938	-2.076667	2.051729	0.000624 	0.004460
-62.200000	-0.024932	-2.073333	2.048401	0.000780 	0.004464
-62.100000	-0.024925	-2.070000	2.045075	0.000937 	0.004467
-62.000000	-0.024917	-2.066667	2.041750	0.001094 	0.004471
-61.900000	-0.024908	-2.063333	2.038425	0.001252 	0.004475
-61.800000	-0.024899	-2.060000	2.035101	0.001410 	0.004478
-61.700000	-0.024889	-2.056667	2.031778	0.001568 	0.004482
-61.600000	-0.024877	-2.053333	2.028456	0.001727 	0.004486
-61.500000	-0.024866	-2.050000	2.025134	0.001887 	0.004489
-61.400000	-0.024853	-2.046667	2.021814	0.002047 	0.004493
-61.300000	-0.024839	-2.043333	2.018494	0.002207 	0.004497
-61.200000	-0.024825	-2.040000	2.015175	0.002368 	0.004500
-61.100000	-0.024810	-2.036667	2.011857	0.002529 	0.004504
-61.000000	-0.024793	-2.033333	2.008540	0.002691 	0.004508
-60.900000	-0.024776	-2.030000	2.005224	0.002853 	0.004512
-60.800000	-0.024759	-2.026667	2.001908	0.003016 	0.004515
-60.700000	-0.024740	-2.023333	1.998593	0.003179 	0.004519
-60.600000	-0.024721	-2.020000	1.995279	0.003342 	0.004523
-60.500000	-0.024700	-2.016667	1.991967	0.003506 	0.004527
-60.400000	-0.024679	-2.013333	1.988654	0.003671 	0.004530
-60.300000	-0.024657	-2.010000	1.985343	0.003835 	0.004534
-60.200000	-0.024634	-2.006667	1.982033	0.004001 	0.004538
-60.100000	-0.024610	-2.003333	1.978723	0.004166 	0.004542
-60.000000	-0.024586	-2.000000	1.975414	0.004332 	0.004546
-59.900000	-0.024560	-1.996667	1.972107	0.004498 	0.004549
-59.800000	-0.024534	-1.993333	1.968799	0.004665 	0.004553
-59.700000	-0.024507	-1.990000	1.965493	0.004832 	0.004557
-59.600000	-0.024479	-1.986667	1.962188	0.005000 	0.004561
-59.500000	-0.024450	-1.983333	1.958883	0.005168 	0.004565
-59.400000	-0.024420	-1.980000	1.955580	0.005336 	0.004569
-59.300000	-0.024389	-1.976667	1.952278	0.005505 	0.004572
-59.200000	-0.024358	-1.973333	1.948975	0.005674 	0.004576
-59.100000	-0.024325	-1.970000	1.945675	0.005843 	0.004580
-59.000000	-0.024292	-1.966667	1.942375	0.006013 	0.004584
-58.900000	-0.024258	-1.963333	1.939075	0.006184 	0.004588
-58.800000	-0.024223	-1.960000	1.935777	0.006354 	0.004592
-58.700000	-0.024187	-1.956667	1.932480	0.006525 	0.004596
-58.600000	-0.024150	-1.953333	1.929183	0.006696 	0.004600
-58.500000	-0.024113	-1.950000	1.925887	0.006868 	0.004604
-58.400000	-0.024074	-1.946667	1.922593	0.007040 	0.004608
-58.300000	-0.024035	-1.943333	1.919298	0.007212 	0.004612
-58.200000	-0.023995	-1.940000	1.916005	0.007385 	0.004615
-58.100000	-0.023953	-1.936667	1.912714	0.007558 	0.004619
-58.000000	-0.023911	-1.933333	1.909422	0.007731 	0.004623
-57.900000	-0.023868	-1.930000	1.906132	0.007905 	0.004627
-57.800000	-0.023825	-1.926667	1.902842	0.008079 	0.004631
-57.700000	-0.023780	-1.923333	1.899553	0.008253 	0.004635
-57.600000	-0.023734	-1.920000	1.896266	0.008428 	0.004639
-57.500000	-0.023688	-1.916667	1.892979	0.008603 	0.004643
-57.400000	-0.023640	-1.913333	1.889693	0.008778 	0.004648
-57.300000	-0.023592	-1.910000	1.886408	0.008953 	0.004652
-57.200000	-0.023543	-1.906667	1.883124	0.009129 	0.004656
-57.100000	-0.023493	-1.903333	1.879840	0.009305 	0.004660
-57.000000	-0.023442	-1.900000	1.876558	0.009482 	0.004664
-56.900000	-0.023390	-1.896667	1.873277	0.009658 	0.004668
-56.800000	-0.023338	-1.893333	1.869995	0.009835 	0.004672
-56.700000	-0.023284	-1.890000	1.866716	0.010013 	0.004676
-56.600000	-0.023229	-1.886667	1.863438	0.010190 	0.004680
-56.500000	-0.023174	-1.883333	1.860159	0.010368 	0.004684
-56.400000	-0.023118	-1.880000	1.856882	0.010546 	0.004688
-56.300000	-0.023061	-1.876667	1.853606	0.010724 	0.004693
-56.200000	-0.023002	-1.873333	1.850331	0.010903 	0.004697
-56.100000	-0.022943	-1.870000	1.847057	0.011081 	0.004701
-56.000000	-0.022884	-1.866667	1.843783	0.011260 	0.004705
-55.900000	-0.022823	-1.863333	1.840510	0.011439 	0.004709
-55.800000	-0.022761	-1.860000	1.837239	0.011619 	0.004713
-55.700000	-0.022698	-1.856667	1.833969	0.011799 	0.004718
-55.600000	-0.022635	-1.853333	1.830698	0.011979 	0.004722
-55.500000	-0.022570	-1.850000	1.827430	0.012159 	0.004726
-55.400000	-0.022505	-1.846667	1.824162	0.012339 	0.004730
-55.300000	-0.022439	-1.843333	1.820894	0.012519 	0.004735
-55.200000	-0.022372	-1.840000	1.817628	0.012700 	0.004739
-55.100000	-0.022304	-1.836667	1.814363	0.012881 	0.004743
-55.000000	-0.022235	-1.833333	1.811098	0.013062 	0.004747
-54.900000	-0.022165	-1.830000	1.807835	0.013243 	0.004752
-54.800000	-0.022094	-1.826667	1.804573	0.013425 	0.004756
-54.700000	-0.022022	-1.823333	1.801311	0.013606 	0.004760
-54.600000	-0.021950	-1.820000	1.798050	0.013788 	0.004764
-54.500000	-0.021876	-1.816667	1.794791	0.013970 	0.004769
-54.400000	-0.021802	-1.813333	1.791531	0.014152 	0.004773
-54.300000	-0.021727	-1.810000	1.788273	0.014334 	0.004777
-54.200000	-0.021650	-1.806667	1.785017	0.014517 	0.004782
-54.100000	-0.021573	-1.803333	1.781760	0.014699 	0.004786
-54.000000	-0.021495	-1.800000	1.778505	0.014882 	0.004791
-53.900000	-0.021416	-1.796667	1.775251	0.015065 	0.004795
-53.800000	-0.021336	-1.793333	1.771997	0.015247 	0.004799
-53.700000	-0.021255	-1.790000	1.768745	0.015430 	0.004804
-53.600000	-0.021174	-1.786667	1.765493	0.015613 	0.004808
-53.500000	-0.021091	-1.783333	1.762242	0.015797 	0.004813
-53.400000	-0.021007	-1.780000	1.758993	0.015980 	0.004817
-53.300000	-0.020923	-1.776667	1.755744	0.016163 	0.004822
-53.200000	-0.020838	-1.773333	1.752495	0.016346 	0.004826
-53.100000	-0.020751	-1.770000	1.749249	0.016530 	0.004830
-53.000000	-0.020664	-1.766667	1.746003	0.016713 	0.004835
-52.900000	-0.020576	-1.763333	1.742757	0.016897 	0.004839
-52.800000	-0.020487	-1.760000	1.739513	0.017081 	0.004844
-52.700000	-0.020397	-1.756667	1.736270	0.017264 	0.004849
-52.600000	-0.020306	-1.753333	1.733027	0.017448 	0.004853
-52.500000	-0.020214	-1.750000	1.729786	0.017632 	0.004858
-52.400000	-0.020122	-1.746667	1.726545	0.017815 	0.004862
-52.300000	-0.020028	-1.743333	1.723305	0.017999 	0.004867
-52.200000	-0.019933	-1.740000	1.720067	0.018183 	0.004871
-52.100000	-0.019838	-1.736667	1.716829	0.018366 	0.004876
-52.000000	-0.019741	-1.733333	1.713592	0.018550 	0.004880
-51.900000	-0.019644	-1.730000	1.710356	0.018734 	0.004885
-51.800000	-0.019546	-1.726667	1.707121	0.018917 	0.004890
-51.700000	-0.019447	-1.723333	1.703886	0.019101 	0.004894
-51.600000	-0.019347	-1.720000	1.700653	0.019285 	0.004899
-51.500000	-0.019246	-1.716667	1.697421	0.019468 	0.004904
-51.400000	-0.019144	-1.713333	1.694189	0.019652 	0.004908
-51.300000	-0.019041	-1.710000	1.690959	0.019835 	0.004913
-51.200000	-0.018937	-1.706667	1.687730	0.020019 	0.004918
-51.100000	-0.018832	-1.703333	1.684501	0.020202 	0.004922
-51.000000	-0.018727	-1.700000	1.681273	0.020385 	0.004927
-50.900000	-0.018620	-1.696667	1.678047	0.020568 	0.004932
-50.800000	-0.018512	-1.693333	1.674821	0.020751 	0.004937
-50.700000	-0.018404	-1.690000	1.671596	0.020934 	0.004941
-50.600000	-0.018295	-1.686667	1.668372	0.021117 	0.004946
-50.500000	-0.018184	-1.683333	1.665149	0.021299 	0.004951
-50.400000	-0.018073	-1.680000	1.661927	0.021482 	0.004956
-50.300000	-0.017961	-1.676667	1.658706	0.021664 	0.004961
-50.200000	-0.017848	-1.673333	1.655485	0.021846 	0.004965
-50.100000	-0.017734	-1.670000	1.652266	0.022028 	0.004970
-50.000000	-0.017619	-1.666667	1.649048	0.022210 	0.004975