VARIABLES = X,Ksi,B,H,U,tau 
ZONE T="Time 10.000000", I=1100, DATAPACKING=POINT
-100.000000	0.010206	-3.333333	3.343539	-0.027842 	0.003494
-99.900000	0.006044	-3.330000	3.336044	-0.020934 	0.003498
-99.800000	0.007684	-3.326667	3.334351	-0.023969 	0.003499
-99.700000	0.006848	-3.323333	3.330181	-0.022758 	0.003501
-99.600000	0.007068	-3.320000	3.327068	-0.023360 	0.003503
-99.500000	0.006838	-3.316667	3.323505	-0.023187 	0.003504
-99.400000	0.006799	-3.313333	3.320132	-0.023344 	0.003506
-99.300000	0.006678	-3.310000	3.316678	-0.023360 	0.003508
-99.200000	0.006592	-3.306667	3.313259	-0.023436 	0.003510
-99.100000	0.006491	-3.303333	3.309824	-0.023485 	0.003512
-99.000000	0.006396	-3.300000	3.306396	-0.023545 	0.003513
-98.900000	0.006298	-3.296667	3.302965	-0.023600 	0.003515
-98.800000	0.006201	-3.293333	3.299534	-0.023657 	0.003517
-98.700000	0.006103	-3.290000	3.296103	-0.023712 	0.003519
-98.600000	0.006005	-3.286667	3.292672	-0.023767 	0.003521
-98.500000	0.005907	-3.283333	3.289240	-0.023821 	0.003523
-98.400000	0.005809	-3.280000	3.285809	-0.023876 	0.003524
-98.300000	0.005710	-3.276667	3.282377	-0.023929 	0.003526
-98.200000	0.005612	-3.273333	3.278945	-0.023983 	0.003528
-98.100000	0.005513	-3.270000	3.275513	-0.024035 	0.003530
-98.000000	0.005414	-3.266667	3.272081	-0.024088 	0.003532
-97.900000	0.005315	-3.263333	3.268648	-0.024140 	0.003534
-97.800000	0.005215	-3.260000	3.265215	-0.024191 	0.003536
-97.700000	0.005115	-3.256667	3.261782	-0.024242 	0.003537
-97.600000	0.005016	-3.253333	3.258349	-0.024293 	0.003539
-97.500000	0.004916	-3.250000	3.254916	-0.024343 	0.003541
-97.400000	0.004815	-3.246667	3.251482	-0.024393 	0.003543
-97.300000	0.004715	-3.243333	3.248048	-0.024442 	0.003545
-97.200000	0.004614	-3.240000	3.244614	-0.024491 	0.003547
-97.100000	0.004513	-3.236667	3.241180	-0.024539 	0.003549
-97.000000	0.004412	-3.233333	3.237745	-0.024587 	0.003551
-96.900000	0.004311	-3.230000	3.234311	-0.024634 	0.003552
-96.800000	0.004210	-3.226667	3.230877	-0.024681 	0.003554
-96.700000	0.004108	-3.223333	3.227441	-0.024727 	0.003556
-96.600000	0.004007	-3.220000	3.224007	-0.024773 	0.003558
-96.500000	0.003905	-3.216667	3.220572	-0.024818 	0.003560
-96.400000	0.003803	-3.213333	3.217136	-0.024863 	0.003562
-96.300000	0.003701	-3.210000	3.213701	-0.024908 	0.003564
-96.200000	0.003598	-3.206667	3.210265	-0.024952 	0.003566
-96.100000	0.003496	-3.203333	3.206829	-0.024995 	0.003568
-96.000000	0.003393	-3.200000	3.203393	-0.025038 	0.003570
-95.900000	0.003290	-3.196667	3.199957	-0.025080 	0.003571
-95.800000	0.003187	-3.193333	3.196520	-0.025122 	0.003573
-95.700000	0.003084	-3.190000	3.193084	-0.025164 	0.003575
-95.600000	0.002980	-3.186667	3.189647	-0.025204 	0.003577
-95.500000	0.002877	-3.183333	3.186210	-0.025245 	0.003579
-95.400000	0.002773	-3.180000	3.182773	-0.025285 	0.003581
-95.300000	0.002669	-3.176667	3.179336	-0.025324 	0.003583
-95.200000	0.002565	-3.173333	3.175898	-0.025363 	0.003585
-95.100000	0.002461	-3.170000	3.172461	-0.025401 	0.003587
-95.000000	0.002357	-3.166667	3.169024	-0.025439 	0.003589
-94.900000	0.002253	-3.163333	3.165586	-0.025476 	0.003591
-94.800000	0.002148	-3.160000	3.162148	-0.025512 	0.003593
-94.700000	0.002043	-3.156667	3.158710	-0.025549 	0.003595
-94.600000	0.001939	-3.153333	3.155272	-0.025584 	0.003597
-94.500000	0.001834	-3.150000	3.151834	-0.025619 	0.003599
-94.400000	0.001729	-3.146667	3.148396	-0.025654 	0.003601
-94.300000	0.001623	-3.143333	3.144956	-0.025688 	0.003603
-94.200000	0.001518	-3.140000	3.141518	-0.025721 	0.003605
-94.100000	0.001412	-3.136667	3.138079	-0.025754 	0.003606
-94.000000	0.001307	-3.133333	3.134640	-0.025786 	0.003608
-93.900000	0.001201	-3.130000	3.131201	-0.025818 	0.003610
-93.800000	0.001095	-3.126667	3.127762	-0.025849 	0.003612
-93.700000	0.000989	-3.123333	3.124322	-0.025879 	0.003614
-93.600000	0.000883	-3.120000	3.120883	-0.025909 	0.003616
-93.500000	0.000777	-3.116667	3.117444	-0.025939 	0.003618
-93.400000	0.000671	-3.113333	3.114004	-0.025968 	0.003620
-93.300000	0.000564	-3.110000	3.110564	-0.025996 	0.003622
-93.200000	0.000458	-3.106667	3.107125	-0.026024 	0.003624
-93.100000	0.000351	-3.103333	3.103684	-0.026051 	0.003626
-93.000000	0.000244	-3.100000	3.100244	-0.026077 	0.003628
-92.900000	0.000137	-3.096667	3.096804	-0.026103 	0.003630
-92.800000	0.000030	-3.093333	3.093363	-0.026129 	0.003632
-92.700000	-0.000077	-3.090000	3.089923	-0.026153 	0.003634
-92.600000	-0.000184	-3.086667	3.086483	-0.026177 	0.003637
-92.500000	-0.000291	-3.083333	3.083042	-0.026201 	0.003639
-92.400000	-0.000398	-3.080000	3.079602	-0.026224 	0.003641
-92.300000	-0.000506	-3.076667	3.076161	-0.026246 	0.003643
-92.200000	-0.000613	-3.073333	3.072720	-0.026268 	0.003645
-92.100000	-0.000721	-3.070000	3.069279	-0.026289 	0.003647
-92.000000	-0.000828	-3.066667	3.065839	-0.026310 	0.003649
-91.900000	-0.000936	-3.063333	3.062397	-0.026329 	0.003651
-91.800000	-0.001044	-3.060000	3.058956	-0.026349 	0.003653
-91.700000	-0.001152	-3.056667	3.055515	-0.026367 	0.003655
-91.600000	-0.001260	-3.053333	3.052073	-0.026385 	0.003657
-91.500000	-0.001368	-3.050000	3.048632	-0.026403 	0.003659
-91.400000	-0.001476	-3.046667	3.045191	-0.026420 	0.003661
-91.300000	-0.001584	-3.043333	3.041749	-0.026436 	0.003663
-91.200000	-0.001693	-3.040000	3.038307	-0.026451 	0.003665
-91.100000	-0.001801	-3.036667	3.034866	-0.026466 	0.003667
-91.000000	-0.001909	-3.033333	3.031424	-0.026480 	0.003669
-90.900000	-0.002018	-3.030000	3.027982	-0.026494 	0.003671
-90.800000	-0.002126	-3.026667	3.024541	-0.026507 	0.003674
-90.700000	-0.002235	-3.023333	3.021098	-0.026519 	0.003676
-90.600000	-0.002343	-3.020000	3.017657	-0.026531 	0.003678
-90.500000	-0.002452	-3.016667	3.014215	-0.026542 	0.003680
-90.400000	-0.002561	-3.013333	3.010772	-0.026552 	0.003682
-90.300000	-0.002669	-3.010000	3.007331	-0.026562 	0.003684
-90.200000	-0.002778	-3.006667	3.003889	-0.026571 	0.003686
-90.100000	-0.002887	-3.003333	3.000446	-0.026579 	0.003688
-90.000000	-0.002996	-3.000000	2.997004	-0.026587 	0.003690
-89.900000	-0.003105	-2.996667	2.993562	-0.026594 	0.003693
-89.800000	-0.003214	-2.993333	2.990119	-0.026600 	0.003695
-89.700000	-0.003322	-2.990000	2.986678	-0.026606 	0.003697
-89.600000	-0.003431	-2.986667	2.983236	-0.026611 	0.003699
-89.500000	-0.003540	-2.983333	2.979793	-0.026615 	0.003701
-89.400000	-0.003649	-2.980000	2.976351	-0.026618 	0.003703
-89.300000	-0.003758	-2.976667	2.972909	-0.026621 	0.003705
-89.200000	-0.003867	-2.973333	2.969466	-0.026624 	0.003707
-89.100000	-0.003976	-2.970000	2.966024	-0.026625 	0.003710
-89.000000	-0.004085	-2.966667	2.962582	-0.026626 	0.003712
-88.900000	-0.004194	-2.963333	2.959139	-0.026626 	0.003714
-88.800000	-0.004304	-2.960000	2.955696	-0.026626 	0.003716
-88.700000	-0.004413	-2.956667	2.952254	-0.026624 	0.003718
-88.600000	-0.004522	-2.953333	2.948811	-0.026622 	0.003720
-88.500000	-0.004631	-2.950000	2.945369	-0.026620 	0.003723
-88.400000	-0.004740	-2.946667	2.941927	-0.026616 	0.003725
-88.300000	-0.004849	-2.943333	2.938484	-0.026612 	0.003727
-88.200000	-0.004958	-2.940000	2.935042	-0.026608 	0.003729
-88.100000	-0.005067	-2.936667	2.931600	-0.026602 	0.003731
-88.000000	-0.005176	-2.933333	2.928157	-0.026596 	0.003734
-87.900000	-0.005285	-2.930000	2.924715	-0.026589 	0.003736
-87.800000	-0.005394	-2.926667	2.921273	-0.026581 	0.003738
-87.700000	-0.005503	-2.923333	2.917830	-0.026573 	0.003740
-87.600000	-0.005612	-2.920000	2.914388	-0.026564 	0.003742
-87.500000	-0.005720	-2.916667	2.910947	-0.026554 	0.003745
-87.400000	-0.005829	-2.913333	2.907504	-0.026544 	0.003747
-87.300000	-0.005938	-2.910000	2.904062	-0.026532 	0.003749
-87.200000	-0.006047	-2.906667	2.900620	-0.026520 	0.003751
-87.100000	-0.006156	-2.903333	2.897177	-0.026508 	0.003753
-87.000000	-0.006264	-2.900000	2.893736	-0.026494 	0.003756
-86.900000	-0.006373	-2.896667	2.890294	-0.026480 	0.003758
-86.800000	-0.006482	-2.893333	2.886851	-0.026465 	0.003760
-86.700000	-0.006590	-2.890000	2.883410	-0.026449 	0.003762
-86.600000	-0.006699	-2.886667	2.879968	-0.026433 	0.003765
-86.500000	-0.006807	-2.883333	2.876526	-0.026415 	0.003767
-86.400000	-0.006915	-2.880000	2.873085	-0.026398 	0.003769
-86.300000	-0.007024	-2.876667	2.869643	-0.026379 	0.003771
-86.200000	-0.007132	-2.873333	2.866201	-0.026359 	0.003774
-86.100000	-0.007240	-2.870000	2.862760	-0.026339 	0.003776
-86.000000	-0.007348	-2.866667	2.859319	-0.026318 	0.003778
-85.900000	-0.007456	-2.863333	2.855877	-0.026296 	0.003780
-85.800000	-0.007564	-2.860000	2.852436	-0.026274 	0.003783
-85.700000	-0.007672	-2.856667	2.848995	-0.026250 	0.003785
-85.600000	-0.007780	-2.853333	2.845553	-0.026226 	0.003787
-85.500000	-0.007888	-2.850000	2.842112	-0.026202 	0.003790
-85.400000	-0.007995	-2.846667	2.838672	-0.026176 	0.003792
-85.300000	-0.008103	-2.843333	2.835230	-0.026150 	0.003794
-85.200000	-0.008210	-2.840000	2.831790	-0.026122 	0.003797
-85.100000	-0.008318	-2.836667	2.828349	-0.026095 	0.003799
-85.000000	-0.008425	-2.833333	2.824908	-0.026066 	0.003801
-84.900000	-0.008532	-2.830000	2.821468	-0.026036 	0.003803
-84.800000	-0.008639	-2.826667	2.818028	-0.026006 	0.003806
-84.700000	-0.008746	-2.823333	2.814587	-0.025975 	0.003808
-84.600000	-0.008853	-2.820000	2.811147	-0.025943 	0.003810
-84.500000	-0.008959	-2.816667	2.807708	-0.025911 	0.003813
-84.400000	-0.009066	-2.813333	2.804267	-0.025877 	0.003815
-84.300000	-0.009173	-2.810000	2.800827	-0.025843 	0.003817
-84.200000	-0.009279	-2.806667	2.797388	-0.025808 	0.003820
-84.100000	-0.009385	-2.803333	2.793948	-0.025772 	0.003822
-84.000000	-0.009491	-2.800000	2.790509	-0.025735 	0.003825
-83.900000	-0.009597	-2.796667	2.787070	-0.025698 	0.003827
-83.800000	-0.009703	-2.793333	2.783630	-0.025660 	0.003829
-83.700000	-0.009809	-2.790000	2.780191	-0.025621 	0.003832
-83.600000	-0.009914	-2.786667	2.776753	-0.025581 	0.003834
-83.500000	-0.010020	-2.783333	2.773313	-0.025540 	0.003836
-83.400000	-0.010125	-2.780000	2.769875	-0.025499 	0.003839
-83.300000	-0.010230	-2.776667	2.766437	-0.025456 	0.003841
-83.200000	-0.010335	-2.773333	2.762998	-0.025413 	0.003843
-83.100000	-0.010440	-2.770000	2.759560	-0.025369 	0.003846
-83.000000	-0.010545	-2.766667	2.756122	-0.025325 	0.003848
-82.900000	-0.010649	-2.763333	2.752684	-0.025279 	0.003851
-82.800000	-0.010753	-2.760000	2.749247	-0.025233 	0.003853
-82.700000	-0.010858	-2.756667	2.745809	-0.025186 	0.003856
-82.600000	-0.010962	-2.753333	2.742371	-0.025138 	0.003858
-82.500000	-0.011065	-2.750000	2.738935	-0.025089 	0.003860
-82.400000	-0.011169	-2.746667	2.735498	-0.025039 	0.003863
-82.300000	-0.011273	-2.743333	2.732060	-0.024989 	0.003865
-82.200000	-0.011376	-2.740000	2.728624	-0.024937 	0.003868
-82.100000	-0.011479	-2.736667	2.725188	-0.024885 	0.003870
-82.000000	-0.011582	-2.733333	2.721751	-0.024832 	0.003873
-81.900000	-0.011685	-2.730000	2.718315	-0.024778 	0.003875
-81.800000	-0.011787	-2.726667	2.714880	-0.024724 	0.003877
-81.700000	-0.011889	-2.723333	2.711444	-0.024668 	0.003880
-81.600000	-0.011992	-2.720000	2.708008	-0.024612 	0.003882
-81.500000	-0.012094	-2.716667	2.704573	-0.024555 	0.003885
-81.400000	-0.012195	-2.713333	2.701138	-0.024497 	0.003887
-81.300000	-0.012297	-2.710000	2.697703	-0.024438 	0.003890
-81.200000	-0.012398	-2.706667	2.694269	-0.024378 	0.003892
-81.100000	-0.012499	-2.703333	2.690834	-0.024318 	0.003895
-81.000000	-0.012600	-2.700000	2.687400	-0.024257 	0.003897
-80.900000	-0.012701	-2.696667	2.683966	-0.024194 	0.003900
-80.800000	-0.012801	-2.693333	2.680532	-0.024131 	0.003902
-80.700000	-0.012901	-2.690000	2.677099	-0.024067 	0.003905
-80.600000	-0.013001	-2.686667	2.673666	-0.024003 	0.003907
-80.500000	-0.013101	-2.683333	2.670232	-0.023937 	0.003910
-80.400000	-0.013200	-2.680000	2.666800	-0.023871 	0.003912
-80.300000	-0.013300	-2.676667	2.663367	-0.023803 	0.003915
-80.200000	-0.013399	-2.673333	2.659934	-0.023735 	0.003917
-80.100000	-0.013497	-2.670000	2.656503	-0.023666 	0.003920
-80.000000	-0.013596	-2.666667	2.653071	-0.023597 	0.003922
-79.900000	-0.013694	-2.663333	2.649639	-0.023526 	0.003925
-79.800000	-0.013792	-2.660000	2.646208	-0.023454 	0.003927
-79.700000	-0.013890	-2.656667	2.642777	-0.023382 	0.003930
-79.600000	-0.013987	-2.653333	2.639346	-0.023309 	0.003933
-79.500000	-0.014084	-2.650000	2.635916	-0.023235 	0.003935
-79.400000	-0.014181	-2.646667	2.632486	-0.023160 	0.003938
-79.300000	-0.014278	-2.643333	2.629055	-0.023084 	0.003940
-79.200000	-0.014374	-2.640000	2.625626	-0.023007 	0.003943
-79.100000	-0.014471	-2.636667	2.622196	-0.022929 	0.003945
-79.000000	-0.014566	-2.633333	2.618767	-0.022851 	0.003948
-78.900000	-0.014662	-2.630000	2.615338	-0.022772 	0.003951
-78.800000	-0.014757	-2.626667	2.611910	-0.022692 	0.003953
-78.700000	-0.014852	-2.623333	2.608481	-0.022611 	0.003956
-78.600000	-0.014947	-2.620000	2.605053	-0.022529 	0.003958
-78.500000	-0.015041	-2.616667	2.601626	-0.022446 	0.003961
-78.400000	-0.015135	-2.613333	2.598198	-0.022362 	0.003964
-78.300000	-0.015229	-2.610000	2.594771	-0.022278 	0.003966
-78.200000	-0.015322	-2.606667	2.591345	-0.022193 	0.003969
-78.100000	-0.015415	-2.603333	2.587918	-0.022106 	0.003971
-78.000000	-0.015508	-2.600000	2.584492	-0.022019 	0.003974
-77.900000	-0.015601	-2.596667	2.581066	-0.021931 	0.003977
-77.800000	-0.015693	-2.593333	2.577640	-0.021842 	0.003979
-77.700000	-0.015785	-2.590000	2.574215	-0.021753 	0.003982
-77.600000	-0.015876	-2.586667	2.570791	-0.021662 	0.003985
-77.500000	-0.015967	-2.583333	2.567366	-0.021571 	0.003987
-77.400000	-0.016058	-2.580000	2.563942	-0.021478 	0.003990
-77.300000	-0.016149	-2.576667	2.560518	-0.021385 	0.003993
-77.200000	-0.016239	-2.573333	2.557094	-0.021291 	0.003995
-77.100000	-0.016329	-2.570000	2.553671	-0.021196 	0.003998
-77.000000	-0.016418	-2.566667	2.550249	-0.021101 	0.004001
-76.900000	-0.016507	-2.563333	2.546826	-0.021004 	0.004003
-76.800000	-0.016596	-2.560000	2.543404	-0.020906 	0.004006
-76.700000	-0.016684	-2.556667	2.539983	-0.020808 	0.004009
-76.600000	-0.016772	-2.553333	2.536561	-0.020709 	0.004011
-76.500000	-0.016860	-2.550000	2.533140	-0.020609 	0.004014
-76.400000	-0.016947	-2.546667	2.529720	-0.020508 	0.004017
-76.300000	-0.017034	-2.543333	2.526299	-0.020406 	0.004020
-76.200000	-0.017121	-2.540000	2.522879	-0.020303 	0.004022
-76.100000	-0.017207	-2.536667	2.519460	-0.020199 	0.004025
-76.000000	-0.017293	-2.533333	2.516040	-0.020095 	0.004028
-75.900000	-0.017378	-2.530000	2.512622	-0.019990 	0.004030
-75.800000	-0.017463	-2.526667	2.509204	-0.019883 	0.004033
-75.700000	-0.017548	-2.523333	2.505785	-0.019776 	0.004036
-75.600000	-0.017632	-2.520000	2.502368	-0.019668 	0.004039
-75.500000	-0.017716	-2.516667	2.498951	-0.019560 	0.004041
-75.400000	-0.017800	-2.513333	2.495533	-0.019450 	0.004044
-75.300000	-0.017883	-2.510000	2.492117	-0.019339 	0.004047
-75.200000	-0.017965	-2.506667	2.488702	-0.019228 	0.004050
-75.100000	-0.018048	-2.503333	2.485285	-0.019116 	0.004053
-75.000000	-0.018129	-2.500000	2.481871	-0.019003 	0.004055
-74.900000	-0.018211	-2.496667	2.478456	-0.018889 	0.004058
-74.800000	-0.018292	-2.493333	2.475041	-0.018774 	0.004061
-74.700000	-0.018372	-2.490000	2.471628	-0.018658 	0.004064
-74.600000	-0.018452	-2.486667	2.468215	-0.018541 	0.004067
-74.500000	-0.018532	-2.483333	2.464801	-0.018424 	0.004069
-74.400000	-0.018611	-2.480000	2.461389	-0.018306 	0.004072
-74.300000	-0.018690	-2.476667	2.457977	-0.018186 	0.004075
-74.200000	-0.018768	-2.473333	2.454565	-0.018066 	0.004078
-74.100000	-0.018846	-2.470000	2.451154	-0.017945 	0.004081
-74.000000	-0.018924	-2.466667	2.447743	-0.017824 	0.004084
-73.900000	-0.019001	-2.463333	2.444332	-0.017701 	0.004086
-73.800000	-0.019078	-2.460000	2.440922	-0.017578 	0.004089
-73.700000	-0.019154	-2.456667	2.437513	-0.017453 	0.004092
-73.600000	-0.019229	-2.453333	2.434104	-0.017328 	0.004095
-73.500000	-0.019304	-2.450000	2.430696	-0.017202 	0.004098
-73.400000	-0.019379	-2.446667	2.427288	-0.017075 	0.004101
-73.300000	-0.019453	-2.443333	2.423880	-0.016947 	0.004104
-73.200000	-0.019527	-2.440000	2.420473	-0.016819 	0.004106
-73.100000	-0.019601	-2.436667	2.417066	-0.016689 	0.004109
-73.000000	-0.019673	-2.433333	2.413660	-0.016559 	0.004112
-72.900000	-0.019746	-2.430000	2.410254	-0.016428 	0.004115
-72.800000	-0.019818	-2.426667	2.406849	-0.016296 	0.004118
-72.700000	-0.019889	-2.423333	2.403444	-0.016163 	0.004121
-72.600000	-0.019960	-2.420000	2.400040	-0.016029 	0.004124
-72.500000	-0.020030	-2.416667	2.396637	-0.015894 	0.004127
-72.400000	-0.020100	-2.413333	2.393233	-0.015759 	0.004130
-72.300000	-0.020169	-2.410000	2.389831	-0.015623 	0.004133
-72.200000	-0.020238	-2.406667	2.386429	-0.015486 	0.004136
-72.100000	-0.020307	-2.403333	2.383026	-0.015348 	0.004139
-72.000000	-0.020374	-2.400000	2.379626	-0.015209 	0.004142
-71.900000	-0.020442	-2.396667	2.376225	-0.015069 	0.004145
-71.800000	-0.020509	-2.393333	2.372824	-0.014929 	0.004147
-71.700000	-0.020575	-2.390000	2.369425	-0.014788 	0.004150
-71.600000	-0.020641	-2.386667	2.366026	-0.014646 	0.004153
-71.500000	-0.020706	-2.383333	2.362627	-0.014503 	0.004156
-71.400000	-0.020771	-2.380000	2.359229	-0.014359 	0.004159
-71.300000	-0.020835	-2.376667	2.355832	-0.014214 	0.004162
-71.200000	-0.020898	-2.373333	2.352435	-0.014069 	0.004165
-71.100000	-0.020961	-2.370000	2.349039	-0.013923 	0.004168
-71.000000	-0.021024	-2.366667	2.345643	-0.013776 	0.004171
-70.900000	-0.021086	-2.363333	2.342247	-0.013628 	0.004174
-70.800000	-0.021147	-2.360000	2.338853	-0.013479 	0.004177
-70.700000	-0.021208	-2.356667	2.335459	-0.013330 	0.004181
-70.600000	-0.021268	-2.353333	2.332065	-0.013179 	0.004184
-70.500000	-0.021328	-2.350000	2.328672	-0.013028 	0.004187
-70.400000	-0.021387	-2.346667	2.325280	-0.012876 	0.004190
-70.300000	-0.021446	-2.343333	2.321887	-0.012724 	0.004193
-70.200000	-0.021504	-2.340000	2.318496	-0.012570 	0.004196
-70.100000	-0.021561	-2.336667	2.315106	-0.012416 	0.004199
-70.000000	-0.021618	-2.333333	2.311715	-0.012261 	0.004202
-69.900000	-0.021675	-2.330000	2.308325	-0.012105 	0.004205
-69.800000	-0.021730	-2.326667	2.304937	-0.011948 	0.004208
-69.700000	-0.021785	-2.323333	2.301548	-0.011790 	0.004211
-69.600000	-0.021840	-2.320000	2.298160	-0.011632 	0.004214
-69.500000	-0.021894	-2.316667	2.294773	-0.011473 	0.004217
-69.400000	-0.021947	-2.313333	2.291386	-0.011313 	0.004221
-69.300000	-0.022000	-2.310000	2.288000	-0.011152 	0.004224
-69.200000	-0.022052	-2.306667	2.284615	-0.010991 	0.004227
-69.100000	-0.022104	-2.303333	2.281229	-0.010829 	0.004230
-69.000000	-0.022154	-2.300000	2.277846	-0.010666 	0.004233
-68.900000	-0.022205	-2.296667	2.274462	-0.010502 	0.004236
-68.800000	-0.022254	-2.293333	2.271079	-0.010337 	0.004239
-68.700000	-0.022304	-2.290000	2.267696	-0.010172 	0.004243
-68.600000	-0.022352	-2.286667	2.264315	-0.010006 	0.004246
-68.500000	-0.022400	-2.283333	2.260933	-0.009839 	0.004249
-68.400000	-0.022447	-2.280000	2.257553	-0.009671 	0.004252
-68.300000	-0.022493	-2.276667	2.254174	-0.009503 	0.004255
-68.200000	-0.022539	-2.273333	2.250794	-0.009333 	0.004258
-68.100000	-0.022585	-2.270000	2.247415	-0.009164 	0.004262
-68.000000	-0.022629	-2.266667	2.244038	-0.008993 	0.004265
-67.900000	-0.022673	-2.263333	2.240660	-0.008821 	0.004268
-67.800000	-0.022717	-2.260000	2.237283	-0.008649 	0.004271
-67.700000	-0.022759	-2.256667	2.233908	-0.008476 	0.004274
-67.600000	-0.022801	-2.253333	2.230532	-0.008303 	0.004278
-67.500000	-0.022843	-2.250000	2.227157	-0.008128 	0.004281
-67.400000	-0.022883	-2.246667	2.223784	-0.007953 	0.004284
-67.300000	-0.022923	-2.243333	2.220410	-0.007777 	0.004287
-67.200000	-0.022963	-2.240000	2.217037	-0.007601 	0.004291
-67.100000	-0.023002	-2.236667	2.213665	-0.007423 	0.004294
-67.000000	-0.023040	-2.233333	2.210293	-0.007245 	0.004297
-66.900000	-0.023077	-2.230000	2.206923	-0.007067 	0.004301
-66.800000	-0.023114	-2.226667	2.203553	-0.006887 	0.004304
-66.700000	-0.023150	-2.223333	2.200183	-0.006707 	0.004307
-66.600000	-0.023185	-2.220000	2.196815	-0.006526 	0.004310
-66.500000	-0.023220	-2.216667	2.193447	-0.006344 	0.004314
-66.400000	-0.023254	-2.213333	2.190079	-0.006162 	0.004317
-66.300000	-0.023287	-2.210000	2.186713	-0.005979 	0.004320
-66.200000	-0.023319	-2.206667	2.183348	-0.005795 	0.004324
-66.100000	-0.023351	-2.203333	2.179982	-0.005611 	0.004327
-66.000000	-0.023382	-2.200000	2.176618	-0.005426 	0.004330
-65.900000	-0.023413	-2.196667	2.173254	-0.005240 	0.004334
-65.800000	-0.023443	-2.193333	2.169890	-0.005054 	0.004337
-65.700000	-0.023472	-2.190000	2.166528	-0.004866 	0.004340
-65.600000	-0.023500	-2.186667	2.163167	-0.004679 	0.004344
-65.500000	-0.023528	-2.183333	2.159805	-0.004490 	0.004347
-65.400000	-0.023554	-2.180000	2.156446	-0.004301 	0.004351
-65.300000	-0.023581	-2.176667	2.153086	-0.004111 	0.004354
-65.200000	-0.023606	-2.173333	2.149727	-0.003921 	0.004357
-65.100000	-0.023631	-2.170000	2.146369	-0.003730 	0.004361
-65.000000	-0.023655	-2.166667	2.143012	-0.003538 	0.004364
-64.900000	-0.023678	-2.163333	2.139655	-0.003346 	0.004368
-64.800000	-0.023701	-2.160000	2.136299	-0.003152 	0.004371
-64.700000	-0.023722	-2.156667	2.132945	-0.002959 	0.004374
-64.600000	-0.023743	-2.153333	2.129590	-0.002764 	0.004378
-64.500000	-0.023764	-2.150000	2.126236	-0.002569 	0.004381
-64.400000	-0.023783	-2.146667	2.122884	-0.002374 	0.004385
-64.300000	-0.023802	-2.143333	2.119531	-0.002178 	0.004388
-64.200000	-0.023820	-2.140000	2.116180	-0.001981 	0.004392
-64.100000	-0.023837	-2.136667	2.112830	-0.001783 	0.004395
-64.000000	-0.023854	-2.133333	2.109479	-0.001585 	0.004399
-63.900000	-0.023870	-2.130000	2.106130	-0.001387 	0.004402
-63.800000	-0.023885	-2.126667	2.102782	-0.001187 	0.004406
-63.700000	-0.023899	-2.123333	2.099434	-0.000987 	0.004409
-63.600000	-0.023912	-2.120000	2.096088	-0.000787 	0.004413
-63.500000	-0.023925	-2.116667	2.092742	-0.000586 	0.004416
-63.400000	-0.023937	-2.113333	2.089396	-0.000384 	0.004420
-63.300000	-0.023948	-2.110000	2.086052	-0.000182 	0.004423
-63.200000	-0.023959	-2.106667	2.082708	0.000021 	0.004427
-63.100000	-0.023968	-2.103333	2.079365	0.000224 	0.004430
-63.000000	-0.023977	-2.100000	2.076023	0.000428 	0.004434
-62.900000	-0.023985	-2.096667	2.072682	0.000633 	0.004438
-62.800000	-0.023992	-2.093333	2.069341	0.000838 	0.004441
-62.700000	-0.023999	-2.090000	2.066001	0.001043 	0.004445
-62.600000	-0.024004	-2.086667	2.062663	0.001249 	0.004448
-62.500000	-0.024009	-2.083333	2.059324	0.001456 	0.004452
-62.400000	-0.024013	-2.080000	2.055987	0.001663 	0.004456
-62.300000	-0.024017	-2.076667	2.052650	0.001871 	0.004459
-62.200000	-0.024019	-2.073333	2.049314	0.002079 	0.004463
-62.100000	-0.024021	-2.070000	2.045979	0.002288 	0.004466
-62.000000	-0.024022	-2.066667	2.042645	0.002498 	0.004470
-61.900000	-0.024022	-2.063333	2.039311	0.002707 	0.004474
-61.800000	-0.024021	-2.060000	2.035979	0.002918 	0.004477
-61.700000	-0.024019	-2.056667	2.032648	0.003129 	0.004481
-61.600000	-0.024017	-2.053333	2.029316	0.003340 	0.004485
-61.500000	-0.024014	-2.050000	2.025986	0.003552 	0.004488
-61.400000	-0.024010	-2.046667	2.022657	0.003764 	0.004492
-61.300000	-0.024005	-2.043333	2.019328	0.003977 	0.004496
-61.200000	-0.023999	-2.040000	2.016001	0.004190 	0.004500
-61.100000	-0.023993	-2.036667	2.012674	0.004404 	0.004503
-61.000000	-0.023985	-2.033333	2.009348	0.004619 	0.004507
-60.900000	-0.023977	-2.030000	2.006023	0.004833 	0.004511
-60.800000	-0.023968	-2.026667	2.002699	0.005048 	0.004514
-60.700000	-0.023958	-2.023333	1.999375	0.005264 	0.004518
-60.600000	-0.023948	-2.020000	1.996052	0.005480 	0.004522
-60.500000	-0.023936	-2.016667	1.992731	0.005697 	0.004526
-60.400000	-0.023924	-2.013333	1.989409	0.005914 	0.004530
-60.300000	-0.023911	-2.010000	1.986089	0.006131 	0.004533
-60.200000	-0.023897	-2.006667	1.982770	0.006349 	0.004537
-60.100000	-0.023882	-2.003333	1.979451	0.006567 	0.004541
-60.000000	-0.023866	-2.000000	1.976134	0.006786 	0.004545
-59.900000	-0.023849	-1.996667	1.972818	0.007005 	0.004549
-59.800000	-0.023832	-1.993333	1.969501	0.007224 	0.004552
-59.700000	-0.023813	-1.990000	1.966187	0.007444 	0.004556
-59.600000	-0.023794	-1.986667	1.962873	0.007665 	0.004560
-59.500000	-0.023774	-1.983333	1.959559	0.007885 	0.004564
-59.400000	-0.023753	-1.980000	1.956247	0.008106 	0.004568
-59.300000	-0.023732	-1.976667	1.952935	0.008328 	0.004572
-59.200000	-0.023709	-1.973333	1.949624	0.008550 	0.004576
-59.100000	-0.023686	-1.970000	1.946314	0.008772 	0.004579
-59.000000	-0.023661	-1.966667	1.943006	0.008994 	0.004583
-58.900000	-0.023636	-1.963333	1.939697	0.009217 	0.004587
-58.800000	-0.023610	-1.960000	1.936390	0.009440 	0.004591
-58.700000	-0.023583	-1.956667	1.933084	0.009664 	0.004595
-58.600000	-0.023555	-1.953333	1.929778	0.009888 	0.004599
-58.500000	-0.023526	-1.950000	1.926474	0.010112 	0.004603
-58.400000	-0.023497	-1.946667	1.923170	0.010336 	0.004607
-58.300000	-0.023466	-1.943333	1.919867	0.010561 	0.004611
-58.200000	-0.023435	-1.940000	1.916565	0.010786 	0.004615
-58.100000	-0.023403	-1.936667	1.913264	0.011012 	0.004619
-58.000000	-0.023369	-1.933333	1.909964	0.011238 	0.004623
-57.900000	-0.023335	-1.930000	1.906665	0.011464 	0.004627
-57.800000	-0.023301	-1.926667	1.903366	0.011690 	0.004631
-57.700000	-0.023265	-1.923333	1.900068	0.011917 	0.004635
-57.600000	-0.023228	-1.920000	1.896772	0.012144 	0.004639
-57.500000	-0.023190	-1.916667	1.893477	0.012371 	0.004643
-57.400000	-0.023152	-1.913333	1.890181	0.012598 	0.004647
-57.300000	-0.023113	-1.910000	1.886887	0.012826 	0.004651
-57.200000	-0.023072	-1.906667	1.883595	0.013054 	0.004655
-57.100000	-0.023031	-1.903333	1.880302	0.013282 	0.004659
-57.000000	-0.022989	-1.900000	1.877011	0.013510 	0.004663
-56.900000	-0.022946	-1.896667	1.873721	0.013739 	0.004667
-56.800000	-0.022902	-1.893333	1.870431	0.013968 	0.004671
-56.700000	-0.022857	-1.890000	1.867143	0.014197 	0.004676
-56.600000	-0.022812	-1.886667	1.863855	0.014426 	0.004680
-56.500000	-0.022765	-1.883333	1.860568	0.014656 	0.004684
-56.400000	-0.022718	-1.880000	1.857282	0.014885 	0.004688
-56.300000	-0.022669	-1.876667	1.853998	0.015115 	0.004692
-56.200000	-0.022620	-1.873333	1.850713	0.015345 	0.004696
-56.100000	-0.022570	-1.870000	1.847430	0.015575 	0.004700
-56.000000	-0.022519	-1.866667	1.844148	0.015806 	0.004705
-55.900000	-0.022467	-1.863333	1.840866	0.016036 	0.004709
-55.800000	-0.022414	-1.860000	1.837586	0.016267 	0.004713
-55.700000	-0.022360	-1.856667	1.834307	0.016498 	0.004717
-55.600000	-0.022305	-1.853333	1.831028	0.016729 	0.004721
-55.500000	-0.022249	-1.850000	1.827751	0.016960 	0.004726
-55.400000	-0.022193	-1.846667	1.824474	0.017191 	0.004730
-55.300000	-0.022135	-1.843333	1.821198	0.017422 	0.004734
-55.200000	-0.022077	-1.840000	1.817923	0.017654 	0.004738
-55.100000	-0.022017	-1.836667	1.814650	0.017885 	0.004743
-55.000000	-0.021957	-1.833333	1.811376	0.018117 	0.004747
-54.900000	-0.021896	-1.830000	1.808104	0.018349 	0.004751
-54.800000	-0.021834	-1.826667	1.804833	0.018581 	0.004756
-54.700000	-0.021771	-1.823333	1.801562	0.018813 	0.004760
-54.600000	-0.021707	-1.820000	1.798293	0.019044 	0.004764
-54.500000	-0.021642	-1.816667	1.795025	0.019277 	0.004768
-54.400000	-0.021576	-1.813333	1.791757	0.019509 	0.004773
-54.300000	-0.021509	-1.810000	1.788491	0.019741 	0.004777
-54.200000	-0.021442	-1.806667	1.785225	0.019973 	0.004782
-54.100000	-0.021373	-1.803333	1.781960	0.020205 	0.004786
-54.000000	-0.021304	-1.800000	1.778696	0.020436 	0.004790
-53.900000	-0.021234	-1.796667	1.775433	0.020668 	0.004795
-53.800000	-0.021163	-1.793333	1.772170	0.020899 	0.004799
-53.700000	-0.021092	-1.790000	1.768908	0.021129 	0.004804
-53.600000	-0.021020	-1.786667	1.765647	0.021359 	0.004808
-53.500000	-0.020947	-1.783333	1.762386	0.021587 	0.004812
-53.400000	-0.020874	-1.780000	1.759126	0.021814 	0.004817
-53.300000	-0.020801	-1.776667	1.755866	0.022040 	0.004821
-53.200000	-0.020728	-1.773333	1.752605	0.022263 	0.004826
-53.100000	-0.020655	-1.770000	1.749345	0.022484 	0.004830
-53.000000	-0.020582	-1.766667	1.746085	0.022702 	0.004835
-52.900000	-0.020509	-1.763333	1.742824	0.022917 	0.004839
-52.800000	-0.020437	-1.760000	1.739563	0.023128 	0.004844
-52.700000	-0.020366	-1.756667	1.736301	0.023335 	0.004848
-52.600000	-0.020296	-1.753333	1.733037	0.023538 	0.004853
-52.500000	-0.020227	-1.750000	1.729773	0.023735 	0.004858
-52.400000	-0.020159	-1.746667	1.726508	0.023928 	0.004862
-52.300000	-0.020092	-1.743333	1.723241	0.024115 	0.004867
-52.200000	-0.020026	-1.740000	1.719974	0.024297 	0.004871
-52.100000	-0.019962	-1.736667	1.716705	0.024473 	0.004876
-52.000000	-0.019899	-1.733333	1.713434	0.024644 	0.004881
-51.900000	-0.019837	-1.730000	1.710163	0.024810 	0.004885
-51.800000	-0.019776	-1.726667	1.706891	0.024971 	0.004890
-51.700000	-0.019716	-1.723333	1.703617	0.025127 	0.004895
-51.600000	-0.019656	-1.720000	1.700344	0.025280 	0.004899
-51.500000	-0.019597	-1.716667	1.697070	0.025429 	0.004904
-51.400000	-0.019537	-1.713333	1.693796	0.025575 	0.004909
-51.300000	-0.019478	-1.710000	1.690522	0.025720 	0.004914
-51.200000	-0.019417	-1.706667	1.687250	0.025864 	0.004918
-51.100000	-0.019356	-1.703333	1.683977	0.026007 	0.004923
-51.000000	-0.019294	-1.700000	1.680706	0.026150 	0.004928
-50.900000	-0.019230	-1.696667	1.677437	0.026294 	0.004933
-50.800000	-0.019164	-1.693333	1.674169	0.026440 	0.004938
-50.700000	-0.019097	-1.690000	1.670903	0.026588 	0.004942
-50.600000	-0.019027	-1.686667	1.667640	0.026739 	0.004947
-50.500000	-0.018954	-1.683333	1.664379	0.026894 	0.004952
-50.400000	-0.018879	-1.680000	1.661121	0.027051 	0.004957
-50.300000	-0.018802	-1.676667	1.657865	0.027213 	0.004962
-50.200000	-0.018721	-1.673333	1.654612	0.027379 	0.004967
-50.100000	-0.018638	-1.670000	1.651362	0.027549 	0.004972
-50.000000	-0.018552	-1.666667	1.648115	0.027723 	0.004976
-49.900000	-0.018463	-1.663333	1.644870	0.027901 	0.004981