VARIABLES = X,Ksi,B,H,U,tau 
ZONE T="Time 65.000000", I=1100, DATAPACKING=POINT
-100.000000	0.006682	-3.333333	3.340015	0.033872 	0.003496
-99.900000	0.005877	-3.330000	3.335877	0.035220 	0.003498
-99.800000	0.006157	-3.326667	3.332824	0.034706 	0.003500
-99.700000	0.005942	-3.323333	3.329275	0.035041 	0.003501
-99.600000	0.005952	-3.320000	3.325952	0.034990 	0.003503
-99.500000	0.005860	-3.316667	3.322527	0.035113 	0.003505
-99.400000	0.005813	-3.313333	3.319146	0.035156 	0.003507
-99.300000	0.005746	-3.310000	3.315746	0.035234 	0.003509
-99.200000	0.005688	-3.306667	3.312355	0.035295 	0.003510
-99.100000	0.005626	-3.303333	3.308959	0.035363 	0.003512
-99.000000	0.005565	-3.300000	3.305565	0.035427 	0.003514
-98.900000	0.005503	-3.296667	3.302170	0.035492 	0.003516
-98.800000	0.005442	-3.293333	3.298775	0.035556 	0.003518
-98.700000	0.005380	-3.290000	3.295380	0.035619 	0.003519
-98.600000	0.005319	-3.286667	3.291986	0.035682 	0.003521
-98.500000	0.005257	-3.283333	3.288590	0.035744 	0.003523
-98.400000	0.005195	-3.280000	3.285195	0.035805 	0.003525
-98.300000	0.005133	-3.276667	3.281800	0.035865 	0.003527
-98.200000	0.005071	-3.273333	3.278404	0.035926 	0.003528
-98.100000	0.005009	-3.270000	3.275009	0.035985 	0.003530
-98.000000	0.004946	-3.266667	3.271613	0.036044 	0.003532
-97.900000	0.004884	-3.263333	3.268217	0.036102 	0.003534
-97.800000	0.004821	-3.260000	3.264821	0.036159 	0.003536
-97.700000	0.004758	-3.256667	3.261425	0.036216 	0.003538
-97.600000	0.004696	-3.253333	3.258029	0.036272 	0.003539
-97.500000	0.004633	-3.250000	3.254633	0.036327 	0.003541
-97.400000	0.004570	-3.246667	3.251237	0.036382 	0.003543
-97.300000	0.004506	-3.243333	3.247839	0.036436 	0.003545
-97.200000	0.004443	-3.240000	3.244443	0.036489 	0.003547
-97.100000	0.004380	-3.236667	3.241047	0.036541 	0.003549
-97.000000	0.004316	-3.233333	3.237649	0.036593 	0.003551
-96.900000	0.004253	-3.230000	3.234253	0.036644 	0.003552
-96.800000	0.004189	-3.226667	3.230856	0.036695 	0.003554
-96.700000	0.004125	-3.223333	3.227458	0.036744 	0.003556
-96.600000	0.004061	-3.220000	3.224061	0.036794 	0.003558
-96.500000	0.003997	-3.216667	3.220664	0.036842 	0.003560
-96.400000	0.003933	-3.213333	3.217266	0.036889 	0.003562
-96.300000	0.003869	-3.210000	3.213869	0.036936 	0.003564
-96.200000	0.003804	-3.206667	3.210471	0.036983 	0.003566
-96.100000	0.003740	-3.203333	3.207073	0.037028 	0.003567
-96.000000	0.003675	-3.200000	3.203675	0.037073 	0.003569
-95.900000	0.003611	-3.196667	3.200278	0.037117 	0.003571
-95.800000	0.003546	-3.193333	3.196879	0.037160 	0.003573
-95.700000	0.003481	-3.190000	3.193481	0.037202 	0.003575
-95.600000	0.003416	-3.186667	3.190083	0.037244 	0.003577
-95.500000	0.003351	-3.183333	3.186684	0.037285 	0.003579
-95.400000	0.003286	-3.180000	3.183286	0.037325 	0.003581
-95.300000	0.003221	-3.176667	3.179888	0.037365 	0.003583
-95.200000	0.003156	-3.173333	3.176489	0.037404 	0.003585
-95.100000	0.003091	-3.170000	3.173091	0.037442 	0.003587
-95.000000	0.003025	-3.166667	3.169692	0.037479 	0.003588
-94.900000	0.002960	-3.163333	3.166293	0.037515 	0.003590
-94.800000	0.002894	-3.160000	3.162894	0.037551 	0.003592
-94.700000	0.002828	-3.156667	3.159495	0.037586 	0.003594
-94.600000	0.002763	-3.153333	3.156096	0.037620 	0.003596
-94.500000	0.002697	-3.150000	3.152697	0.037653 	0.003598
-94.400000	0.002631	-3.146667	3.149298	0.037686 	0.003600
-94.300000	0.002565	-3.143333	3.145898	0.037718 	0.003602
-94.200000	0.002499	-3.140000	3.142499	0.037749 	0.003604
-94.100000	0.002432	-3.136667	3.139099	0.037779 	0.003606
-94.000000	0.002366	-3.133333	3.135699	0.037808 	0.003608
-93.900000	0.002300	-3.130000	3.132300	0.037837 	0.003610
-93.800000	0.002233	-3.126667	3.128900	0.037865 	0.003612
-93.700000	0.002167	-3.123333	3.125500	0.037892 	0.003614
-93.600000	0.002100	-3.120000	3.122100	0.037918 	0.003616
-93.500000	0.002034	-3.116667	3.118701	0.037944 	0.003618
-93.400000	0.001967	-3.113333	3.115300	0.037968 	0.003620
-93.300000	0.001900	-3.110000	3.111900	0.037992 	0.003622
-93.200000	0.001833	-3.106667	3.108500	0.038015 	0.003624
-93.100000	0.001766	-3.103333	3.105099	0.038037 	0.003626
-93.000000	0.001699	-3.100000	3.101699	0.038058 	0.003628
-92.900000	0.001632	-3.096667	3.098299	0.038079 	0.003630
-92.800000	0.001565	-3.093333	3.094898	0.038099 	0.003632
-92.700000	0.001498	-3.090000	3.091498	0.038117 	0.003634
-92.600000	0.001431	-3.086667	3.088098	0.038135 	0.003636
-92.500000	0.001363	-3.083333	3.084696	0.038153 	0.003638
-92.400000	0.001296	-3.080000	3.081296	0.038169 	0.003640
-92.300000	0.001228	-3.076667	3.077895	0.038184 	0.003642
-92.200000	0.001161	-3.073333	3.074494	0.038199 	0.003644
-92.100000	0.001093	-3.070000	3.071093	0.038213 	0.003646
-92.000000	0.001026	-3.066667	3.067693	0.038226 	0.003648
-91.900000	0.000958	-3.063333	3.064291	0.038238 	0.003650
-91.800000	0.000890	-3.060000	3.060890	0.038249 	0.003652
-91.700000	0.000822	-3.056667	3.057489	0.038260 	0.003654
-91.600000	0.000754	-3.053333	3.054087	0.038269 	0.003656
-91.500000	0.000686	-3.050000	3.050686	0.038278 	0.003658
-91.400000	0.000618	-3.046667	3.047285	0.038286 	0.003660
-91.300000	0.000550	-3.043333	3.043883	0.038293 	0.003662
-91.200000	0.000482	-3.040000	3.040482	0.038299 	0.003664
-91.100000	0.000414	-3.036667	3.037081	0.038304 	0.003666
-91.000000	0.000346	-3.033333	3.033679	0.038308 	0.003668
-90.900000	0.000278	-3.030000	3.030278	0.038312 	0.003670
-90.800000	0.000209	-3.026667	3.026876	0.038314 	0.003672
-90.700000	0.000141	-3.023333	3.023474	0.038316 	0.003674
-90.600000	0.000072	-3.020000	3.020072	0.038317 	0.003676
-90.500000	0.000004	-3.016667	3.016671	0.038317 	0.003678
-90.400000	-0.000065	-3.013333	3.013268	0.038316 	0.003680
-90.300000	-0.000133	-3.010000	3.009867	0.038314 	0.003683
-90.200000	-0.000202	-3.006667	3.006465	0.038311 	0.003685
-90.100000	-0.000270	-3.003333	3.003063	0.038307 	0.003687
-90.000000	-0.000339	-3.000000	2.999661	0.038303 	0.003689
-89.900000	-0.000408	-2.996667	2.996259	0.038297 	0.003691
-89.800000	-0.000477	-2.993333	2.992856	0.038291 	0.003693
-89.700000	-0.000545	-2.990000	2.989455	0.038284 	0.003695
-89.600000	-0.000614	-2.986667	2.986053	0.038276 	0.003697
-89.500000	-0.000683	-2.983333	2.982650	0.038267 	0.003699
-89.400000	-0.000752	-2.980000	2.979248	0.038257 	0.003701
-89.300000	-0.000821	-2.976667	2.975846	0.038246 	0.003703
-89.200000	-0.000890	-2.973333	2.972443	0.038234 	0.003706
-89.100000	-0.000959	-2.970000	2.969041	0.038221 	0.003708
-89.000000	-0.001028	-2.966667	2.965639	0.038208 	0.003710
-88.900000	-0.001098	-2.963333	2.962235	0.038193 	0.003712
-88.800000	-0.001167	-2.960000	2.958833	0.038178 	0.003714
-88.700000	-0.001236	-2.956667	2.955431	0.038161 	0.003716
-88.600000	-0.001305	-2.953333	2.952028	0.038144 	0.003718
-88.500000	-0.001374	-2.950000	2.948626	0.038126 	0.003721
-88.400000	-0.001444	-2.946667	2.945223	0.038107 	0.003723
-88.300000	-0.001513	-2.943333	2.941820	0.038086 	0.003725
-88.200000	-0.001582	-2.940000	2.938418	0.038065 	0.003727
-88.100000	-0.001652	-2.936667	2.935015	0.038044 	0.003729
-88.000000	-0.001721	-2.933333	2.931612	0.038021 	0.003731
-87.900000	-0.001791	-2.930000	2.928209	0.037997 	0.003733
-87.800000	-0.001860	-2.926667	2.924807	0.037972 	0.003736
-87.700000	-0.001929	-2.923333	2.921404	0.037946 	0.003738
-87.600000	-0.001999	-2.920000	2.918001	0.037920 	0.003740
-87.500000	-0.002068	-2.916667	2.914599	0.037892 	0.003742
-87.400000	-0.002138	-2.913333	2.911195	0.037864 	0.003744
-87.300000	-0.002208	-2.910000	2.907792	0.037834 	0.003747
-87.200000	-0.002277	-2.906667	2.904390	0.037804 	0.003749
-87.100000	-0.002347	-2.903333	2.900986	0.037772 	0.003751
-87.000000	-0.002416	-2.900000	2.897584	0.037740 	0.003753
-86.900000	-0.002486	-2.896667	2.894181	0.037707 	0.003755
-86.800000	-0.002556	-2.893333	2.890777	0.037672 	0.003758
-86.700000	-0.002625	-2.890000	2.887375	0.037637 	0.003760
-86.600000	-0.002695	-2.886667	2.883972	0.037601 	0.003762
-86.500000	-0.002765	-2.883333	2.880568	0.037564 	0.003764
-86.400000	-0.002834	-2.880000	2.877166	0.037526 	0.003766
-86.300000	-0.002904	-2.876667	2.873763	0.037487 	0.003769
-86.200000	-0.002974	-2.873333	2.870359	0.037446 	0.003771
-86.100000	-0.003043	-2.870000	2.866957	0.037405 	0.003773
-86.000000	-0.003113	-2.866667	2.863554	0.037363 	0.003775
-85.900000	-0.003183	-2.863333	2.860150	0.037321 	0.003778
-85.800000	-0.003253	-2.860000	2.856747	0.037277 	0.003780
-85.700000	-0.003322	-2.856667	2.853345	0.037232 	0.003782
-85.600000	-0.003392	-2.853333	2.849941	0.037186 	0.003784
-85.500000	-0.003462	-2.850000	2.846538	0.037139 	0.003787
-85.400000	-0.003532	-2.846667	2.843135	0.037091 	0.003789
-85.300000	-0.003601	-2.843333	2.839732	0.037042 	0.003791
-85.200000	-0.003671	-2.840000	2.836329	0.036993 	0.003793
-85.100000	-0.003741	-2.836667	2.832926	0.036942 	0.003796
-85.000000	-0.003811	-2.833333	2.829522	0.036890 	0.003798
-84.900000	-0.003880	-2.830000	2.826120	0.036838 	0.003800
-84.800000	-0.003950	-2.826667	2.822717	0.036784 	0.003803
-84.700000	-0.004020	-2.823333	2.819313	0.036729 	0.003805
-84.600000	-0.004089	-2.820000	2.815911	0.036673 	0.003807
-84.500000	-0.004159	-2.816667	2.812508	0.036617 	0.003810
-84.400000	-0.004229	-2.813333	2.809104	0.036559 	0.003812
-84.300000	-0.004299	-2.810000	2.805701	0.036500 	0.003814
-84.200000	-0.004368	-2.806667	2.802299	0.036441 	0.003816
-84.100000	-0.004438	-2.803333	2.798895	0.036380 	0.003819
-84.000000	-0.004507	-2.800000	2.795493	0.036318 	0.003821
-83.900000	-0.004577	-2.796667	2.792090	0.036256 	0.003823
-83.800000	-0.004647	-2.793333	2.788686	0.036192 	0.003826
-83.700000	-0.004716	-2.790000	2.785284	0.036127 	0.003828
-83.600000	-0.004786	-2.786667	2.781881	0.036062 	0.003830
-83.500000	-0.004855	-2.783333	2.778478	0.035995 	0.003833
-83.400000	-0.004925	-2.780000	2.775075	0.035927 	0.003835
-83.300000	-0.004994	-2.776667	2.771673	0.035859 	0.003837
-83.200000	-0.005064	-2.773333	2.768269	0.035789 	0.003840
-83.100000	-0.005133	-2.770000	2.764867	0.035718 	0.003842
-83.000000	-0.005202	-2.766667	2.761465	0.035647 	0.003845
-82.900000	-0.005272	-2.763333	2.758061	0.035574 	0.003847
-82.800000	-0.005341	-2.760000	2.754659	0.035500 	0.003849
-82.700000	-0.005410	-2.756667	2.751257	0.035426 	0.003852
-82.600000	-0.005479	-2.753333	2.747854	0.035350 	0.003854
-82.500000	-0.005549	-2.750000	2.744451	0.035273 	0.003856
-82.400000	-0.005618	-2.746667	2.741049	0.035195 	0.003859
-82.300000	-0.005687	-2.743333	2.737646	0.035116 	0.003861
-82.200000	-0.005756	-2.740000	2.734244	0.035037 	0.003864
-82.100000	-0.005825	-2.736667	2.730842	0.034956 	0.003866
-82.000000	-0.005894	-2.733333	2.727439	0.034874 	0.003868
-81.900000	-0.005963	-2.730000	2.724037	0.034791 	0.003871
-81.800000	-0.006032	-2.726667	2.720635	0.034707 	0.003873
-81.700000	-0.006101	-2.723333	2.717232	0.034622 	0.003876
-81.600000	-0.006169	-2.720000	2.713831	0.034536 	0.003878
-81.500000	-0.006238	-2.716667	2.710429	0.034449 	0.003881
-81.400000	-0.006307	-2.713333	2.707026	0.034361 	0.003883
-81.300000	-0.006375	-2.710000	2.703625	0.034272 	0.003885
-81.200000	-0.006444	-2.706667	2.700223	0.034182 	0.003888
-81.100000	-0.006512	-2.703333	2.696821	0.034091 	0.003890
-81.000000	-0.006581	-2.700000	2.693419	0.033998 	0.003893
-80.900000	-0.006649	-2.696667	2.690018	0.033905 	0.003895
-80.800000	-0.006717	-2.693333	2.686616	0.033811 	0.003898
-80.700000	-0.006785	-2.690000	2.683215	0.033716 	0.003900
-80.600000	-0.006854	-2.686667	2.679813	0.033619 	0.003903
-80.500000	-0.006922	-2.683333	2.676411	0.033522 	0.003905
-80.400000	-0.006990	-2.680000	2.673010	0.033424 	0.003908
-80.300000	-0.007057	-2.676667	2.669610	0.033324 	0.003910
-80.200000	-0.007125	-2.673333	2.666208	0.033224 	0.003913
-80.100000	-0.007193	-2.670000	2.662807	0.033122 	0.003915
-80.000000	-0.007261	-2.666667	2.659406	0.033020 	0.003918
-79.900000	-0.007328	-2.663333	2.656005	0.032916 	0.003920
-79.800000	-0.007396	-2.660000	2.652604	0.032811 	0.003923
-79.700000	-0.007463	-2.656667	2.649204	0.032705 	0.003925
-79.600000	-0.007530	-2.653333	2.645803	0.032599 	0.003928
-79.500000	-0.007598	-2.650000	2.642402	0.032491 	0.003930
-79.400000	-0.007665	-2.646667	2.639002	0.032382 	0.003933
-79.300000	-0.007732	-2.643333	2.635601	0.032272 	0.003935
-79.200000	-0.007798	-2.640000	2.632202	0.032161 	0.003938
-79.100000	-0.007865	-2.636667	2.628802	0.032049 	0.003940
-79.000000	-0.007932	-2.633333	2.625401	0.031936 	0.003943
-78.900000	-0.007999	-2.630000	2.622001	0.031821 	0.003945
-78.800000	-0.008065	-2.626667	2.618602	0.031706 	0.003948
-78.700000	-0.008131	-2.623333	2.615202	0.031590 	0.003951
-78.600000	-0.008198	-2.620000	2.611802	0.031472 	0.003953
-78.500000	-0.008264	-2.616667	2.608403	0.031354 	0.003956
-78.400000	-0.008330	-2.613333	2.605003	0.031234 	0.003958
-78.300000	-0.008396	-2.610000	2.601604	0.031114 	0.003961
-78.200000	-0.008461	-2.606667	2.598206	0.030992 	0.003964
-78.100000	-0.008527	-2.603333	2.594806	0.030869 	0.003966
-78.000000	-0.008593	-2.600000	2.591407	0.030746 	0.003969
-77.900000	-0.008658	-2.596667	2.588009	0.030621 	0.003971
-77.800000	-0.008723	-2.593333	2.584610	0.030495 	0.003974
-77.700000	-0.008788	-2.590000	2.581212	0.030368 	0.003977
-77.600000	-0.008853	-2.586667	2.577814	0.030240 	0.003979
-77.500000	-0.008918	-2.583333	2.574415	0.030110 	0.003982
-77.400000	-0.008983	-2.580000	2.571017	0.029980 	0.003984
-77.300000	-0.009047	-2.576667	2.567620	0.029849 	0.003987
-77.200000	-0.009112	-2.573333	2.564221	0.029717 	0.003990
-77.100000	-0.009176	-2.570000	2.560824	0.029583 	0.003992
-77.000000	-0.009240	-2.566667	2.557427	0.029448 	0.003995
-76.900000	-0.009304	-2.563333	2.554029	0.029313 	0.003998
-76.800000	-0.009368	-2.560000	2.550632	0.029176 	0.004000
-76.700000	-0.009431	-2.556667	2.547236	0.029038 	0.004003
-76.600000	-0.009495	-2.553333	2.543838	0.028899 	0.004006
-76.500000	-0.009558	-2.550000	2.540442	0.028759 	0.004008
-76.400000	-0.009621	-2.546667	2.537046	0.028618 	0.004011
-76.300000	-0.009684	-2.543333	2.533649	0.028476 	0.004014
-76.200000	-0.009747	-2.540000	2.530253	0.028333 	0.004016
-76.100000	-0.009810	-2.536667	2.526857	0.028189 	0.004019
-76.000000	-0.009872	-2.533333	2.523461	0.028043 	0.004022
-75.900000	-0.009934	-2.530000	2.520066	0.027897 	0.004024
-75.800000	-0.009996	-2.526667	2.516671	0.027749 	0.004027
-75.700000	-0.010058	-2.523333	2.513275	0.027600 	0.004030
-75.600000	-0.010120	-2.520000	2.509880	0.027451 	0.004033
-75.500000	-0.010181	-2.516667	2.506486	0.027300 	0.004035
-75.400000	-0.010243	-2.513333	2.503090	0.027148 	0.004038
-75.300000	-0.010304	-2.510000	2.499696	0.026995 	0.004041
-75.200000	-0.010365	-2.506667	2.496302	0.026841 	0.004044
-75.100000	-0.010425	-2.503333	2.492908	0.026685 	0.004046
-75.000000	-0.010486	-2.500000	2.489514	0.026529 	0.004049
-74.900000	-0.010546	-2.496667	2.486121	0.026372 	0.004052
-74.800000	-0.010606	-2.493333	2.482727	0.026213 	0.004055
-74.700000	-0.010666	-2.490000	2.479334	0.026053 	0.004057
-74.600000	-0.010726	-2.486667	2.475941	0.025893 	0.004060
-74.500000	-0.010785	-2.483333	2.472548	0.025731 	0.004063
-74.400000	-0.010844	-2.480000	2.469156	0.025568 	0.004066
-74.300000	-0.010903	-2.476667	2.465764	0.025404 	0.004069
-74.200000	-0.010962	-2.473333	2.462371	0.025239 	0.004071
-74.100000	-0.011020	-2.470000	2.458980	0.025072 	0.004074
-74.000000	-0.011079	-2.466667	2.455588	0.024905 	0.004077
-73.900000	-0.011137	-2.463333	2.452196	0.024736 	0.004080
-73.800000	-0.011194	-2.460000	2.448806	0.024567 	0.004083
-73.700000	-0.011252	-2.456667	2.445415	0.024396 	0.004085
-73.600000	-0.011309	-2.453333	2.442024	0.024224 	0.004088
-73.500000	-0.011366	-2.450000	2.438634	0.024051 	0.004091
-73.400000	-0.011423	-2.446667	2.435244	0.023877 	0.004094
-73.300000	-0.011479	-2.443333	2.431854	0.023702 	0.004097
-73.200000	-0.011535	-2.440000	2.428465	0.023526 	0.004100
-73.100000	-0.011591	-2.436667	2.425076	0.023348 	0.004103
-73.000000	-0.011647	-2.433333	2.421686	0.023170 	0.004105
-72.900000	-0.011702	-2.430000	2.418298	0.022990 	0.004108
-72.800000	-0.011757	-2.426667	2.414910	0.022809 	0.004111
-72.700000	-0.011812	-2.423333	2.411521	0.022628 	0.004114
-72.600000	-0.011867	-2.420000	2.408133	0.022445 	0.004117
-72.500000	-0.011921	-2.416667	2.404746	0.022260 	0.004120
-72.400000	-0.011975	-2.413333	2.401358	0.022075 	0.004123
-72.300000	-0.012029	-2.410000	2.397971	0.021889 	0.004126
-72.200000	-0.012082	-2.406667	2.394585	0.021701 	0.004129
-72.100000	-0.012135	-2.403333	2.391198	0.021512 	0.004132
-72.000000	-0.012188	-2.400000	2.387812	0.021323 	0.004134
-71.900000	-0.012240	-2.396667	2.384427	0.021132 	0.004137
-71.800000	-0.012292	-2.393333	2.381041	0.020940 	0.004140
-71.700000	-0.012344	-2.390000	2.377656	0.020746 	0.004143
-71.600000	-0.012395	-2.386667	2.374272	0.020552 	0.004146
-71.500000	-0.012447	-2.383333	2.370886	0.020356 	0.004149
-71.400000	-0.012497	-2.380000	2.367503	0.020160 	0.004152
-71.300000	-0.012548	-2.376667	2.364119	0.019962 	0.004155
-71.200000	-0.012598	-2.373333	2.360735	0.019763 	0.004158
-71.100000	-0.012648	-2.370000	2.357352	0.019563 	0.004161
-71.000000	-0.012697	-2.366667	2.353970	0.019361 	0.004164
-70.900000	-0.012746	-2.363333	2.350587	0.019159 	0.004167
-70.800000	-0.012795	-2.360000	2.347205	0.018955 	0.004170
-70.700000	-0.012843	-2.356667	2.343824	0.018750 	0.004173
-70.600000	-0.012891	-2.353333	2.340442	0.018544 	0.004176
-70.500000	-0.012938	-2.350000	2.337062	0.018337 	0.004179
-70.400000	-0.012985	-2.346667	2.333682	0.018129 	0.004182
-70.300000	-0.013032	-2.343333	2.330301	0.017919 	0.004185
-70.200000	-0.013078	-2.340000	2.326922	0.017709 	0.004188
-70.100000	-0.013124	-2.336667	2.323543	0.017497 	0.004191
-70.000000	-0.013170	-2.333333	2.320163	0.017283 	0.004194
-69.900000	-0.013215	-2.330000	2.316785	0.017069 	0.004197
-69.800000	-0.013259	-2.326667	2.313408	0.016853 	0.004200
-69.700000	-0.013304	-2.323333	2.310029	0.016637 	0.004203
-69.600000	-0.013347	-2.320000	2.306653	0.016419 	0.004207
-69.500000	-0.013391	-2.316667	2.303276	0.016199 	0.004210
-69.400000	-0.013434	-2.313333	2.299899	0.015979 	0.004213
-69.300000	-0.013476	-2.310000	2.296524	0.015757 	0.004216
-69.200000	-0.013518	-2.306667	2.293149	0.015534 	0.004219
-69.100000	-0.013560	-2.303333	2.289773	0.015310 	0.004222
-69.000000	-0.013601	-2.300000	2.286399	0.015085 	0.004225
-68.900000	-0.013641	-2.296667	2.283026	0.014858 	0.004228
-68.800000	-0.013681	-2.293333	2.279652	0.014630 	0.004231
-68.700000	-0.013721	-2.290000	2.276279	0.014401 	0.004235
-68.600000	-0.013760	-2.286667	2.272907	0.014170 	0.004238
-68.500000	-0.013799	-2.283333	2.269534	0.013938 	0.004241
-68.400000	-0.013837	-2.280000	2.266163	0.013705 	0.004244
-68.300000	-0.013874	-2.276667	2.262793	0.013471 	0.004247
-68.200000	-0.013911	-2.273333	2.259422	0.013235 	0.004250
-68.100000	-0.013948	-2.270000	2.256052	0.012998 	0.004253
-68.000000	-0.013984	-2.266667	2.252683	0.012760 	0.004257
-67.900000	-0.014019	-2.263333	2.249314	0.012520 	0.004260
-67.800000	-0.014054	-2.260000	2.245946	0.012279 	0.004263
-67.700000	-0.014089	-2.256667	2.242578	0.012037 	0.004266
-67.600000	-0.014122	-2.253333	2.239211	0.011793 	0.004269
-67.500000	-0.014156	-2.250000	2.235844	0.011548 	0.004273
-67.400000	-0.014188	-2.246667	2.232479	0.011302 	0.004276
-67.300000	-0.014220	-2.243333	2.229113	0.011054 	0.004279
-67.200000	-0.014252	-2.240000	2.225748	0.010805 	0.004282
-67.100000	-0.014283	-2.236667	2.222384	0.010555 	0.004286
-67.000000	-0.014313	-2.233333	2.219020	0.010303 	0.004289
-66.900000	-0.014343	-2.230000	2.215657	0.010050 	0.004292
-66.800000	-0.014372	-2.226667	2.212295	0.009796 	0.004295
-66.700000	-0.014400	-2.223333	2.208933	0.009540 	0.004299
-66.600000	-0.014428	-2.220000	2.205572	0.009283 	0.004302
-66.500000	-0.014455	-2.216667	2.202212	0.009024 	0.004305
-66.400000	-0.014482	-2.213333	2.198851	0.008764 	0.004308
-66.300000	-0.014508	-2.210000	2.195492	0.008503 	0.004312
-66.200000	-0.014533	-2.206667	2.192134	0.008240 	0.004315
-66.100000	-0.014558	-2.203333	2.188775	0.007976 	0.004318
-66.000000	-0.014582	-2.200000	2.185418	0.007711 	0.004322
-65.900000	-0.014605	-2.196667	2.182062	0.007444 	0.004325
-65.800000	-0.014628	-2.193333	2.178705	0.007176 	0.004328
-65.700000	-0.014650	-2.190000	2.175350	0.006906 	0.004332
-65.600000	-0.014672	-2.186667	2.171995	0.006635 	0.004335
-65.500000	-0.014692	-2.183333	2.168641	0.006363 	0.004338
-65.400000	-0.014712	-2.180000	2.165288	0.006090 	0.004342
-65.300000	-0.014732	-2.176667	2.161935	0.005815 	0.004345
-65.200000	-0.014751	-2.173333	2.158582	0.005538 	0.004348
-65.100000	-0.014769	-2.170000	2.155231	0.005261 	0.004352
-65.000000	-0.014786	-2.166667	2.151881	0.004982 	0.004355
-64.900000	-0.014803	-2.163333	2.148530	0.004702 	0.004359
-64.800000	-0.014820	-2.160000	2.145180	0.004420 	0.004362
-64.700000	-0.014835	-2.156667	2.141832	0.004137 	0.004365
-64.600000	-0.014850	-2.153333	2.138483	0.003853 	0.004369
-64.500000	-0.014864	-2.150000	2.135136	0.003568 	0.004372
-64.400000	-0.014878	-2.146667	2.131789	0.003281 	0.004376
-64.300000	-0.014891	-2.143333	2.128442	0.002994 	0.004379
-64.200000	-0.014903	-2.140000	2.125097	0.002704 	0.004383
-64.100000	-0.014915	-2.136667	2.121752	0.002414 	0.004386
-64.000000	-0.014926	-2.133333	2.118407	0.002123 	0.004389
-63.900000	-0.014936	-2.130000	2.115064	0.001830 	0.004393
-63.800000	-0.014946	-2.126667	2.111721	0.001536 	0.004396
-63.700000	-0.014955	-2.123333	2.108378	0.001241 	0.004400
-63.600000	-0.014963	-2.120000	2.105037	0.000945 	0.004403
-63.500000	-0.014971	-2.116667	2.101696	0.000648 	0.004407
-63.400000	-0.014978	-2.113333	2.098355	0.000349 	0.004410
-63.300000	-0.014984	-2.110000	2.095016	0.000050 	0.004414
-63.200000	-0.014990	-2.106667	2.091677	-0.000251 	0.004417
-63.100000	-0.014996	-2.103333	2.088337	-0.000552 	0.004421
-63.000000	-0.015000	-2.100000	2.085000	-0.000855 	0.004424
-62.900000	-0.015004	-2.096667	2.081663	-0.001159 	0.004428
-62.800000	-0.015008	-2.093333	2.078325	-0.001463 	0.004432
-62.700000	-0.015011	-2.090000	2.074989	-0.001769 	0.004435
-62.600000	-0.015013	-2.086667	2.071654	-0.002075 	0.004439
-62.500000	-0.015014	-2.083333	2.068319	-0.002383 	0.004442
-62.400000	-0.015015	-2.080000	2.064985	-0.002691 	0.004446
-62.300000	-0.015016	-2.076667	2.061651	-0.003001 	0.004449
-62.200000	-0.015016	-2.073333	2.058317	-0.003311 	0.004453
-62.100000	-0.015015	-2.070000	2.054985	-0.003622 	0.004457
-62.000000	-0.015014	-2.066667	2.051653	-0.003934 	0.004460
-61.900000	-0.015012	-2.063333	2.048321	-0.004247 	0.004464
-61.800000	-0.015009	-2.060000	2.044991	-0.004561 	0.004468
-61.700000	-0.015006	-2.056667	2.041661	-0.004875 	0.004471
-61.600000	-0.015002	-2.053333	2.038331	-0.005191 	0.004475
-61.500000	-0.014998	-2.050000	2.035002	-0.005507 	0.004479
-61.400000	-0.014993	-2.046667	2.031674	-0.005824 	0.004482
-61.300000	-0.014988	-2.043333	2.028345	-0.006142 	0.004486
-61.200000	-0.014982	-2.040000	2.025018	-0.006460 	0.004490
-61.100000	-0.014975	-2.036667	2.021692	-0.006779 	0.004493
-61.000000	-0.014968	-2.033333	2.018365	-0.007099 	0.004497
-60.900000	-0.014961	-2.030000	2.015039	-0.007420 	0.004501
-60.800000	-0.014952	-2.026667	2.011715	-0.007741 	0.004504
-60.700000	-0.014943	-2.023333	2.008390	-0.008063 	0.004508
-60.600000	-0.014934	-2.020000	2.005066	-0.008386 	0.004512
-60.500000	-0.014924	-2.016667	2.001743	-0.008710 	0.004516
-60.400000	-0.014913	-2.013333	1.998420	-0.009034 	0.004519
-60.300000	-0.014902	-2.010000	1.995098	-0.009359 	0.004523
-60.200000	-0.014890	-2.006667	1.991777	-0.009684 	0.004527
-60.100000	-0.014878	-2.003333	1.988455	-0.010010 	0.004531
-60.000000	-0.014865	-2.000000	1.985135	-0.010337 	0.004534
-59.900000	-0.014851	-1.996667	1.981816	-0.010664 	0.004538
-59.800000	-0.014837	-1.993333	1.978496	-0.010992 	0.004542
-59.700000	-0.014822	-1.990000	1.975178	-0.011321 	0.004546
-59.600000	-0.014807	-1.986667	1.971860	-0.011650 	0.004550
-59.500000	-0.014791	-1.983333	1.968542	-0.011980 	0.004553
-59.400000	-0.014775	-1.980000	1.965225	-0.012311 	0.004557
-59.300000	-0.014757	-1.976667	1.961910	-0.012642 	0.004561
-59.200000	-0.014740	-1.973333	1.958593	-0.012973 	0.004565
-59.100000	-0.014721	-1.970000	1.955279	-0.013305 	0.004569
-59.000000	-0.014702	-1.966667	1.951965	-0.013638 	0.004573
-58.900000	-0.014683	-1.963333	1.948650	-0.013971 	0.004577
-58.800000	-0.014663	-1.960000	1.945337	-0.014305 	0.004581
-58.700000	-0.014642	-1.956667	1.942025	-0.014639 	0.004584
-58.600000	-0.014620	-1.953333	1.938713	-0.014974 	0.004588
-58.500000	-0.014598	-1.950000	1.935402	-0.015309 	0.004592
-58.400000	-0.014576	-1.946667	1.932091	-0.015645 	0.004596
-58.300000	-0.014553	-1.943333	1.928780	-0.015981 	0.004600
-58.200000	-0.014529	-1.940000	1.925471	-0.016318 	0.004604
-58.100000	-0.014504	-1.936667	1.922163	-0.016655 	0.004608
-58.000000	-0.014479	-1.933333	1.918854	-0.016993 	0.004612
-57.900000	-0.014454	-1.930000	1.915546	-0.017330 	0.004616
-57.800000	-0.014427	-1.926667	1.912240	-0.017669 	0.004620
-57.700000	-0.014401	-1.923333	1.908932	-0.018008 	0.004624
-57.600000	-0.014373	-1.920000	1.905627	-0.018347 	0.004628
-57.500000	-0.014345	-1.916667	1.902322	-0.018686 	0.004632
-57.400000	-0.014317	-1.913333	1.899016	-0.019026 	0.004636
-57.300000	-0.014287	-1.910000	1.895713	-0.019366 	0.004640
-57.200000	-0.014258	-1.906667	1.892409	-0.019706 	0.004644
-57.100000	-0.014227	-1.903333	1.889106	-0.020047 	0.004648
-57.000000	-0.014196	-1.900000	1.885804	-0.020387 	0.004652
-56.900000	-0.014165	-1.896667	1.882502	-0.020728 	0.004656
-56.800000	-0.014133	-1.893333	1.879200	-0.021070 	0.004660
-56.700000	-0.014100	-1.890000	1.875900	-0.021411 	0.004665
-56.600000	-0.014067	-1.886667	1.872600	-0.021753 	0.004669
-56.500000	-0.014033	-1.883333	1.869300	-0.022095 	0.004673
-56.400000	-0.013998	-1.880000	1.866002	-0.022437 	0.004677
-56.300000	-0.013963	-1.876667	1.862704	-0.022779 	0.004681
-56.200000	-0.013928	-1.873333	1.859405	-0.023121 	0.004685
-56.100000	-0.013892	-1.870000	1.856108	-0.023463 	0.004689
-56.000000	-0.013855	-1.866667	1.852812	-0.023805 	0.004694
-55.900000	-0.013818	-1.863333	1.849515	-0.024148 	0.004698
-55.800000	-0.013780	-1.860000	1.846220	-0.024490 	0.004702
-55.700000	-0.013741	-1.856667	1.842926	-0.024832 	0.004706
-55.600000	-0.013703	-1.853333	1.839630	-0.025175 	0.004710
-55.500000	-0.013663	-1.850000	1.836337	-0.025517 	0.004715
-55.400000	-0.013623	-1.846667	1.833044	-0.025859 	0.004719
-55.300000	-0.013582	-1.843333	1.829751	-0.026201 	0.004723
-55.200000	-0.013541	-1.840000	1.826459	-0.026544 	0.004727
-55.100000	-0.013500	-1.836667	1.823167	-0.026886 	0.004732
-55.000000	-0.013457	-1.833333	1.819876	-0.027228 	0.004736
-54.900000	-0.013415	-1.830000	1.816585	-0.027569 	0.004740
-54.800000	-0.013371	-1.826667	1.813296	-0.027911 	0.004744
-54.700000	-0.013328	-1.823333	1.810005	-0.028253 	0.004749
-54.600000	-0.013283	-1.820000	1.806717	-0.028594 	0.004753
-54.500000	-0.013238	-1.816667	1.803429	-0.028935 	0.004757
-54.400000	-0.013193	-1.813333	1.800140	-0.029276 	0.004762
-54.300000	-0.013147	-1.810000	1.796853	-0.029617 	0.004766
-54.200000	-0.013100	-1.806667	1.793567	-0.029958 	0.004770
-54.100000	-0.013053	-1.803333	1.790280	-0.030298 	0.004775
-54.000000	-0.013005	-1.800000	1.786995	-0.030638 	0.004779
-53.900000	-0.012957	-1.796667	1.783710	-0.030978 	0.004784
-53.800000	-0.012908	-1.793333	1.780425	-0.031318 	0.004788
-53.700000	-0.012858	-1.790000	1.777142	-0.031657 	0.004792
-53.600000	-0.012809	-1.786667	1.773858	-0.031996 	0.004797
-53.500000	-0.012758	-1.783333	1.770575	-0.032335 	0.004801
-53.400000	-0.012707	-1.780000	1.767293	-0.032673 	0.004806
-53.300000	-0.012655	-1.776667	1.764012	-0.033011 	0.004810
-53.200000	-0.012603	-1.773333	1.760730	-0.033349 	0.004815
-53.100000	-0.012550	-1.770000	1.757450	-0.033687 	0.004819
-53.000000	-0.012497	-1.766667	1.754170	-0.034024 	0.004824
-52.900000	-0.012443	-1.763333	1.750890	-0.034361 	0.004828
-52.800000	-0.012388	-1.760000	1.747612	-0.034697 	0.004833
-52.700000	-0.012333	-1.756667	1.744334	-0.035033 	0.004837
-52.600000	-0.012278	-1.753333	1.741055	-0.035369 	0.004842
-52.500000	-0.012222	-1.750000	1.737778	-0.035704 	0.004846
-52.400000	-0.012165	-1.746667	1.734502	-0.036039 	0.004851
-52.300000	-0.012107	-1.743333	1.731226	-0.036373 	0.004856
-52.200000	-0.012049	-1.740000	1.727951	-0.036707 	0.004860
-52.100000	-0.011991	-1.736667	1.724676	-0.037041 	0.004865
-52.000000	-0.011932	-1.733333	1.721401	-0.037374 	0.004869
-51.900000	-0.011872	-1.730000	1.718128	-0.037707 	0.004874
-51.800000	-0.011812	-1.726667	1.714855	-0.038039 	0.004879
-51.700000	-0.011751	-1.723333	1.711582	-0.038371 	0.004883
-51.600000	-0.011689	-1.720000	1.708311	-0.038702 	0.004888
-51.500000	-0.011627	-1.716667	1.705040	-0.039033 	0.004893
-51.400000	-0.011564	-1.713333	1.701769	-0.039363 	0.004897
-51.300000	-0.011501	-1.710000	1.698499	-0.039693 	0.004902
-51.200000	-0.011437	-1.706667	1.695230	-0.040022 	0.004907
-51.100000	-0.011373	-1.703333	1.691960	-0.040350 	0.004912
-51.000000	-0.011308	-1.700000	1.688692	-0.040678 	0.004916
-50.900000	-0.011242	-1.696667	1.685425	-0.041006 	0.004921
-50.800000	-0.011176	-1.693333	1.682157	-0.041333 	0.004926
-50.700000	-0.011109	-1.690000	1.678891	-0.041659 	0.004931
-50.600000	-0.011042	-1.686667	1.675625	-0.041984 	0.004935
-50.500000	-0.010973	-1.683333	1.672360	-0.042309 	0.004940
-50.400000	-0.010905	-1.680000	1.669095	-0.042634 	0.004945
-50.300000	-0.010836	-1.676667	1.665831	-0.042957 	0.004950
-50.200000	-0.010766	-1.673333	1.662567	-0.043281 	0.004955
-50.100000	-0.010695	-1.670000	1.659305	-0.043603 	0.004960
-50.000000	-0.010624	-1.666667	1.656043	-0.043925 	0.004965
-49.900000	-0.010553	-1.663333	1.652780	-0.044245 	0.004969
-49.800000	-0.010480	-1.660000	1.649520	-0.044566 	0.004974
-49.700000	-0.010407	-1.656667	1.646260	-0.044885 	0.004979
-49.600000	-0.010334	-1.653333	1.642999	-0.045204 	0.004984
-49.500000	-0.010260	-1.650000	1.639740	-0.045522 	0.004989