VARIABLES = X,Ksi,B,H,U,tau 
ZONE T="Time 45.000000", I=1100, DATAPACKING=POINT
-100.000000	-0.003158	-3.333333	3.330175	0.038725 	0.003501
-99.900000	-0.001255	-3.330000	3.328745	0.035639 	0.003502
-99.800000	-0.001991	-3.326667	3.324676	0.037082 	0.003504
-99.700000	-0.001593	-3.323333	3.321740	0.036577 	0.003505
-99.600000	-0.001682	-3.320000	3.318318	0.036908 	0.003507
-99.500000	-0.001562	-3.316667	3.315105	0.036880 	0.003509
-99.400000	-0.001531	-3.313333	3.311802	0.037005 	0.003511
-99.300000	-0.001462	-3.310000	3.308538	0.037064 	0.003512
-99.200000	-0.001409	-3.306667	3.305258	0.037150 	0.003514
-99.100000	-0.001348	-3.303333	3.301985	0.037224 	0.003516
-99.000000	-0.001291	-3.300000	3.298709	0.037302 	0.003518
-98.900000	-0.001233	-3.296667	3.295434	0.037377 	0.003519
-98.800000	-0.001174	-3.293333	3.292159	0.037453 	0.003521
-98.700000	-0.001116	-3.290000	3.288884	0.037528 	0.003523
-98.600000	-0.001057	-3.286667	3.285610	0.037603 	0.003525
-98.500000	-0.000999	-3.283333	3.282334	0.037677 	0.003526
-98.400000	-0.000940	-3.280000	3.279060	0.037750 	0.003528
-98.300000	-0.000881	-3.276667	3.275786	0.037823 	0.003530
-98.200000	-0.000822	-3.273333	3.272511	0.037895 	0.003532
-98.100000	-0.000763	-3.270000	3.269237	0.037966 	0.003533
-98.000000	-0.000703	-3.266667	3.265964	0.038037 	0.003535
-97.900000	-0.000644	-3.263333	3.262689	0.038108 	0.003537
-97.800000	-0.000584	-3.260000	3.259416	0.038178 	0.003539
-97.700000	-0.000525	-3.256667	3.256142	0.038247 	0.003541
-97.600000	-0.000465	-3.253333	3.252868	0.038315 	0.003542
-97.500000	-0.000405	-3.250000	3.249595	0.038383 	0.003544
-97.400000	-0.000345	-3.246667	3.246322	0.038451 	0.003546
-97.300000	-0.000285	-3.243333	3.243048	0.038517 	0.003548
-97.200000	-0.000225	-3.240000	3.239775	0.038583 	0.003549
-97.100000	-0.000165	-3.236667	3.236502	0.038649 	0.003551
-97.000000	-0.000104	-3.233333	3.233229	0.038714 	0.003553
-96.900000	-0.000044	-3.230000	3.229956	0.038778 	0.003555
-96.800000	0.000017	-3.226667	3.226684	0.038841 	0.003557
-96.700000	0.000078	-3.223333	3.223411	0.038904 	0.003558
-96.600000	0.000139	-3.220000	3.220139	0.038966 	0.003560
-96.500000	0.000200	-3.216667	3.216867	0.039028 	0.003562
-96.400000	0.000261	-3.213333	3.213594	0.039089 	0.003564
-96.300000	0.000322	-3.210000	3.210322	0.039149 	0.003566
-96.200000	0.000383	-3.206667	3.207050	0.039209 	0.003568
-96.100000	0.000445	-3.203333	3.203778	0.039267 	0.003569
-96.000000	0.000506	-3.200000	3.200506	0.039326 	0.003571
-95.900000	0.000568	-3.196667	3.197235	0.039383 	0.003573
-95.800000	0.000630	-3.193333	3.193963	0.039440 	0.003575
-95.700000	0.000692	-3.190000	3.190692	0.039496 	0.003577
-95.600000	0.000754	-3.186667	3.187421	0.039551 	0.003578
-95.500000	0.000816	-3.183333	3.184149	0.039606 	0.003580
-95.400000	0.000878	-3.180000	3.180878	0.039660 	0.003582
-95.300000	0.000940	-3.176667	3.177607	0.039713 	0.003584
-95.200000	0.001003	-3.173333	3.174336	0.039766 	0.003586
-95.100000	0.001065	-3.170000	3.171065	0.039817 	0.003588
-95.000000	0.001128	-3.166667	3.167795	0.039868 	0.003590
-94.900000	0.001191	-3.163333	3.164524	0.039919 	0.003591
-94.800000	0.001254	-3.160000	3.161254	0.039968 	0.003593
-94.700000	0.001317	-3.156667	3.157984	0.040017 	0.003595
-94.600000	0.001380	-3.153333	3.154713	0.040065 	0.003597
-94.500000	0.001443	-3.150000	3.151443	0.040112 	0.003599
-94.400000	0.001507	-3.146667	3.148174	0.040158 	0.003601
-94.300000	0.001570	-3.143333	3.144903	0.040204 	0.003603
-94.200000	0.001634	-3.140000	3.141634	0.040249 	0.003604
-94.100000	0.001697	-3.136667	3.138364	0.040293 	0.003606
-94.000000	0.001761	-3.133333	3.135094	0.040336 	0.003608
-93.900000	0.001825	-3.130000	3.131825	0.040379 	0.003610
-93.800000	0.001889	-3.126667	3.128556	0.040420 	0.003612
-93.700000	0.001954	-3.123333	3.125287	0.040461 	0.003614
-93.600000	0.002018	-3.120000	3.122018	0.040501 	0.003616
-93.500000	0.002082	-3.116667	3.118749	0.040540 	0.003618
-93.400000	0.002147	-3.113333	3.115480	0.040578 	0.003620
-93.300000	0.002212	-3.110000	3.112212	0.040616 	0.003621
-93.200000	0.002277	-3.106667	3.108944	0.040652 	0.003623
-93.100000	0.002342	-3.103333	3.105675	0.040688 	0.003625
-93.000000	0.002407	-3.100000	3.102407	0.040723 	0.003627
-92.900000	0.002472	-3.096667	3.099139	0.040757 	0.003629
-92.800000	0.002537	-3.093333	3.095870	0.040790 	0.003631
-92.700000	0.002603	-3.090000	3.092603	0.040822 	0.003633
-92.600000	0.002668	-3.086667	3.089335	0.040853 	0.003635
-92.500000	0.002734	-3.083333	3.086067	0.040884 	0.003637
-92.400000	0.002800	-3.080000	3.082800	0.040913 	0.003639
-92.300000	0.002866	-3.076667	3.079533	0.040941 	0.003641
-92.200000	0.002932	-3.073333	3.076265	0.040969 	0.003643
-92.100000	0.002999	-3.070000	3.072999	0.040996 	0.003644
-92.000000	0.003065	-3.066667	3.069732	0.041021 	0.003646
-91.900000	0.003132	-3.063333	3.066465	0.041046 	0.003648
-91.800000	0.003198	-3.060000	3.063198	0.041070 	0.003650
-91.700000	0.003265	-3.056667	3.059932	0.041092 	0.003652
-91.600000	0.003332	-3.053333	3.056665	0.041114 	0.003654
-91.500000	0.003399	-3.050000	3.053399	0.041135 	0.003656
-91.400000	0.003466	-3.046667	3.050133	0.041155 	0.003658
-91.300000	0.003534	-3.043333	3.046867	0.041174 	0.003660
-91.200000	0.003601	-3.040000	3.043601	0.041192 	0.003662
-91.100000	0.003669	-3.036667	3.040336	0.041208 	0.003664
-91.000000	0.003737	-3.033333	3.037070	0.041224 	0.003666
-90.900000	0.003805	-3.030000	3.033805	0.041239 	0.003668
-90.800000	0.003873	-3.026667	3.030540	0.041253 	0.003670
-90.700000	0.003941	-3.023333	3.027274	0.041265 	0.003672
-90.600000	0.004010	-3.020000	3.024010	0.041277 	0.003674
-90.500000	0.004078	-3.016667	3.020745	0.041288 	0.003676
-90.400000	0.004147	-3.013333	3.017480	0.041297 	0.003678
-90.300000	0.004216	-3.010000	3.014216	0.041306 	0.003680
-90.200000	0.004285	-3.006667	3.010952	0.041314 	0.003682
-90.100000	0.004354	-3.003333	3.007687	0.041320 	0.003684
-90.000000	0.004423	-3.000000	3.004423	0.041325 	0.003686
-89.900000	0.004492	-2.996667	3.001159	0.041330 	0.003688
-89.800000	0.004562	-2.993333	2.997895	0.041333 	0.003690
-89.700000	0.004632	-2.990000	2.994632	0.041335 	0.003692
-89.600000	0.004701	-2.986667	2.991368	0.041336 	0.003694
-89.500000	0.004771	-2.983333	2.988104	0.041336 	0.003696
-89.400000	0.004841	-2.980000	2.984841	0.041335 	0.003698
-89.300000	0.004911	-2.976667	2.981578	0.041333 	0.003700
-89.200000	0.004982	-2.973333	2.978315	0.041330 	0.003702
-89.100000	0.005052	-2.970000	2.975052	0.041325 	0.003704
-89.000000	0.005123	-2.966667	2.971790	0.041320 	0.003706
-88.900000	0.005193	-2.963333	2.968526	0.041313 	0.003708
-88.800000	0.005264	-2.960000	2.965264	0.041305 	0.003710
-88.700000	0.005335	-2.956667	2.962002	0.041297 	0.003712
-88.600000	0.005406	-2.953333	2.958739	0.041287 	0.003714
-88.500000	0.005477	-2.950000	2.955477	0.041276 	0.003716
-88.400000	0.005548	-2.946667	2.952215	0.041263 	0.003718
-88.300000	0.005619	-2.943333	2.948952	0.041250 	0.003720
-88.200000	0.005691	-2.940000	2.945691	0.041236 	0.003722
-88.100000	0.005762	-2.936667	2.942429	0.041220 	0.003724
-88.000000	0.005834	-2.933333	2.939167	0.041204 	0.003727
-87.900000	0.005905	-2.930000	2.935905	0.041186 	0.003729
-87.800000	0.005977	-2.926667	2.932644	0.041167 	0.003731
-87.700000	0.006049	-2.923333	2.929382	0.041148 	0.003733
-87.600000	0.006121	-2.920000	2.926121	0.041127 	0.003735
-87.500000	0.006193	-2.916667	2.922860	0.041105 	0.003737
-87.400000	0.006265	-2.913333	2.919598	0.041081 	0.003739
-87.300000	0.006337	-2.910000	2.916337	0.041057 	0.003741
-87.200000	0.006409	-2.906667	2.913076	0.041032 	0.003743
-87.100000	0.006481	-2.903333	2.909814	0.041005 	0.003745
-87.000000	0.006553	-2.900000	2.906553	0.040978 	0.003747
-86.900000	0.006626	-2.896667	2.903293	0.040949 	0.003749
-86.800000	0.006698	-2.893333	2.900031	0.040919 	0.003752
-86.700000	0.006770	-2.890000	2.896770	0.040889 	0.003754
-86.600000	0.006843	-2.886667	2.893510	0.040857 	0.003756
-86.500000	0.006915	-2.883333	2.890248	0.040824 	0.003758
-86.400000	0.006987	-2.880000	2.886987	0.040790 	0.003760
-86.300000	0.007060	-2.876667	2.883727	0.040755 	0.003762
-86.200000	0.007132	-2.873333	2.880465	0.040719 	0.003764
-86.100000	0.007205	-2.870000	2.877205	0.040682 	0.003766
-86.000000	0.007277	-2.866667	2.873944	0.040643 	0.003769
-85.900000	0.007349	-2.863333	2.870682	0.040604 	0.003771
-85.800000	0.007422	-2.860000	2.867422	0.040564 	0.003773
-85.700000	0.007494	-2.856667	2.864161	0.040522 	0.003775
-85.600000	0.007566	-2.853333	2.860899	0.040480 	0.003777
-85.500000	0.007639	-2.850000	2.857639	0.040437 	0.003779
-85.400000	0.007711	-2.846667	2.854378	0.040392 	0.003781
-85.300000	0.007783	-2.843333	2.851116	0.040347 	0.003784
-85.200000	0.007855	-2.840000	2.847855	0.040300 	0.003786
-85.100000	0.007927	-2.836667	2.844594	0.040252 	0.003788
-85.000000	0.007999	-2.833333	2.841332	0.040204 	0.003790
-84.900000	0.008071	-2.830000	2.838071	0.040154 	0.003792
-84.800000	0.008143	-2.826667	2.834810	0.040104 	0.003795
-84.700000	0.008215	-2.823333	2.831548	0.040052 	0.003797
-84.600000	0.008287	-2.820000	2.828287	0.039999 	0.003799
-84.500000	0.008358	-2.816667	2.825025	0.039946 	0.003801
-84.400000	0.008430	-2.813333	2.821763	0.039891 	0.003803
-84.300000	0.008501	-2.810000	2.818501	0.039835 	0.003805
-84.200000	0.008573	-2.806667	2.815240	0.039779 	0.003808
-84.100000	0.008644	-2.803333	2.811977	0.039721 	0.003810
-84.000000	0.008715	-2.800000	2.808715	0.039662 	0.003812
-83.900000	0.008786	-2.796667	2.805453	0.039603 	0.003814
-83.800000	0.008857	-2.793333	2.802190	0.039542 	0.003817
-83.700000	0.008928	-2.790000	2.798928	0.039480 	0.003819
-83.600000	0.008999	-2.786667	2.795666	0.039418 	0.003821
-83.500000	0.009069	-2.783333	2.792402	0.039354 	0.003823
-83.400000	0.009140	-2.780000	2.789140	0.039289 	0.003825
-83.300000	0.009210	-2.776667	2.785877	0.039224 	0.003828
-83.200000	0.009280	-2.773333	2.782613	0.039157 	0.003830
-83.100000	0.009350	-2.770000	2.779350	0.039089 	0.003832
-83.000000	0.009420	-2.766667	2.776087	0.039021 	0.003834
-82.900000	0.009490	-2.763333	2.772823	0.038951 	0.003837
-82.800000	0.009559	-2.760000	2.769559	0.038881 	0.003839
-82.700000	0.009629	-2.756667	2.766296	0.038809 	0.003841
-82.600000	0.009698	-2.753333	2.763031	0.038736 	0.003843
-82.500000	0.009767	-2.750000	2.759767	0.038663 	0.003846
-82.400000	0.009836	-2.746667	2.756503	0.038588 	0.003848
-82.300000	0.009905	-2.743333	2.753238	0.038513 	0.003850
-82.200000	0.009974	-2.740000	2.749974	0.038436 	0.003853
-82.100000	0.010042	-2.736667	2.746709	0.038359 	0.003855
-82.000000	0.010111	-2.733333	2.743444	0.038280 	0.003857
-81.900000	0.010179	-2.730000	2.740179	0.038201 	0.003859
-81.800000	0.010247	-2.726667	2.736914	0.038120 	0.003862
-81.700000	0.010314	-2.723333	2.733647	0.038038 	0.003864
-81.600000	0.010382	-2.720000	2.730382	0.037956 	0.003866
-81.500000	0.010449	-2.716667	2.727116	0.037872 	0.003869
-81.400000	0.010517	-2.713333	2.723850	0.037788 	0.003871
-81.300000	0.010584	-2.710000	2.720584	0.037702 	0.003873
-81.200000	0.010651	-2.706667	2.717318	0.037616 	0.003876
-81.100000	0.010717	-2.703333	2.714050	0.037528 	0.003878
-81.000000	0.010784	-2.700000	2.710784	0.037440 	0.003880
-80.900000	0.010850	-2.696667	2.707517	0.037350 	0.003883
-80.800000	0.010916	-2.693333	2.704249	0.037259 	0.003885
-80.700000	0.010982	-2.690000	2.700982	0.037168 	0.003887
-80.600000	0.011047	-2.686667	2.697714	0.037075 	0.003890
-80.500000	0.011113	-2.683333	2.694446	0.036981 	0.003892
-80.400000	0.011178	-2.680000	2.691178	0.036887 	0.003894
-80.300000	0.011243	-2.676667	2.687910	0.036791 	0.003897
-80.200000	0.011308	-2.673333	2.684641	0.036694 	0.003899
-80.100000	0.011372	-2.670000	2.681372	0.036597 	0.003902
-80.000000	0.011437	-2.666667	2.678104	0.036498 	0.003904
-79.900000	0.011501	-2.663333	2.674834	0.036398 	0.003906
-79.800000	0.011565	-2.660000	2.671565	0.036297 	0.003909
-79.700000	0.011628	-2.656667	2.668295	0.036195 	0.003911
-79.600000	0.011692	-2.653333	2.665025	0.036093 	0.003914
-79.500000	0.011755	-2.650000	2.661755	0.035989 	0.003916
-79.400000	0.011818	-2.646667	2.658485	0.035884 	0.003918
-79.300000	0.011880	-2.643333	2.655213	0.035778 	0.003921
-79.200000	0.011943	-2.640000	2.651943	0.035671 	0.003923
-79.100000	0.012005	-2.636667	2.648672	0.035563 	0.003926
-79.000000	0.012067	-2.633333	2.645400	0.035454 	0.003928
-78.900000	0.012129	-2.630000	2.642129	0.035344 	0.003930
-78.800000	0.012190	-2.626667	2.638857	0.035232 	0.003933
-78.700000	0.012251	-2.623333	2.635584	0.035120 	0.003935
-78.600000	0.012312	-2.620000	2.632312	0.035007 	0.003938
-78.500000	0.012373	-2.616667	2.629040	0.034893 	0.003940
-78.400000	0.012433	-2.613333	2.625766	0.034777 	0.003943
-78.300000	0.012493	-2.610000	2.622493	0.034661 	0.003945
-78.200000	0.012553	-2.606667	2.619220	0.034544 	0.003948
-78.100000	0.012613	-2.603333	2.615946	0.034425 	0.003950
-78.000000	0.012672	-2.600000	2.612672	0.034306 	0.003953
-77.900000	0.012731	-2.596667	2.609398	0.034185 	0.003955
-77.800000	0.012790	-2.593333	2.606123	0.034064 	0.003957
-77.700000	0.012849	-2.590000	2.602849	0.033941 	0.003960
-77.600000	0.012907	-2.586667	2.599574	0.033817 	0.003962
-77.500000	0.012965	-2.583333	2.596298	0.033692 	0.003965
-77.400000	0.013022	-2.580000	2.593022	0.033567 	0.003967
-77.300000	0.013080	-2.576667	2.589747	0.033440 	0.003970
-77.200000	0.013137	-2.573333	2.586470	0.033312 	0.003972
-77.100000	0.013193	-2.570000	2.583193	0.033183 	0.003975
-77.000000	0.013250	-2.566667	2.579917	0.033053 	0.003978
-76.900000	0.013306	-2.563333	2.576639	0.032922 	0.003980
-76.800000	0.013362	-2.560000	2.573362	0.032790 	0.003983
-76.700000	0.013417	-2.556667	2.570084	0.032656 	0.003985
-76.600000	0.013473	-2.553333	2.566806	0.032522 	0.003988
-76.500000	0.013528	-2.550000	2.563528	0.032387 	0.003990
-76.400000	0.013582	-2.546667	2.560249	0.032250 	0.003993
-76.300000	0.013637	-2.543333	2.556970	0.032113 	0.003995
-76.200000	0.013691	-2.540000	2.553691	0.031974 	0.003998
-76.100000	0.013744	-2.536667	2.550411	0.031834 	0.004000
-76.000000	0.013798	-2.533333	2.547131	0.031694 	0.004003
-75.900000	0.013851	-2.530000	2.543851	0.031552 	0.004006
-75.800000	0.013903	-2.526667	2.540570	0.031409 	0.004008
-75.700000	0.013956	-2.523333	2.537289	0.031265 	0.004011
-75.600000	0.014008	-2.520000	2.534008	0.031120 	0.004013
-75.500000	0.014059	-2.516667	2.530726	0.030974 	0.004016
-75.400000	0.014111	-2.513333	2.527444	0.030827 	0.004019
-75.300000	0.014162	-2.510000	2.524162	0.030678 	0.004021
-75.200000	0.014212	-2.506667	2.520879	0.030529 	0.004024
-75.100000	0.014263	-2.503333	2.517596	0.030379 	0.004026
-75.000000	0.014313	-2.500000	2.514313	0.030227 	0.004029
-74.900000	0.014362	-2.496667	2.511029	0.030074 	0.004032
-74.800000	0.014412	-2.493333	2.507745	0.029921 	0.004034
-74.700000	0.014461	-2.490000	2.504461	0.029766 	0.004037
-74.600000	0.014509	-2.486667	2.501176	0.029610 	0.004040
-74.500000	0.014558	-2.483333	2.497891	0.029453 	0.004042
-74.400000	0.014605	-2.480000	2.494605	0.029295 	0.004045
-74.300000	0.014653	-2.476667	2.491320	0.029136 	0.004048
-74.200000	0.014700	-2.473333	2.488033	0.028976 	0.004050
-74.100000	0.014747	-2.470000	2.484747	0.028814 	0.004053
-74.000000	0.014793	-2.466667	2.481460	0.028652 	0.004056
-73.900000	0.014839	-2.463333	2.478172	0.028488 	0.004058
-73.800000	0.014885	-2.460000	2.474885	0.028324 	0.004061
-73.700000	0.014930	-2.456667	2.471597	0.028158 	0.004064
-73.600000	0.014975	-2.453333	2.468308	0.027991 	0.004066
-73.500000	0.015020	-2.450000	2.465020	0.027823 	0.004069
-73.400000	0.015064	-2.446667	2.461731	0.027654 	0.004072
-73.300000	0.015108	-2.443333	2.458441	0.027484 	0.004075
-73.200000	0.015151	-2.440000	2.455151	0.027313 	0.004077
-73.100000	0.015194	-2.436667	2.451861	0.027141 	0.004080
-73.000000	0.015237	-2.433333	2.448570	0.026967 	0.004083
-72.900000	0.015279	-2.430000	2.445279	0.026793 	0.004086
-72.800000	0.015321	-2.426667	2.441988	0.026617 	0.004088
-72.700000	0.015362	-2.423333	2.438695	0.026440 	0.004091
-72.600000	0.015403	-2.420000	2.435403	0.026263 	0.004094
-72.500000	0.015444	-2.416667	2.432111	0.026084 	0.004097
-72.400000	0.015484	-2.413333	2.428817	0.025904 	0.004099
-72.300000	0.015524	-2.410000	2.425524	0.025722 	0.004102
-72.200000	0.015563	-2.406667	2.422230	0.025540 	0.004105
-72.100000	0.015602	-2.403333	2.418935	0.025357 	0.004108
-72.000000	0.015641	-2.400000	2.415641	0.025172 	0.004111
-71.900000	0.015679	-2.396667	2.412346	0.024987 	0.004113
-71.800000	0.015717	-2.393333	2.409050	0.024800 	0.004116
-71.700000	0.015754	-2.390000	2.405754	0.024612 	0.004119
-71.600000	0.015791	-2.386667	2.402458	0.024423 	0.004122
-71.500000	0.015828	-2.383333	2.399161	0.024233 	0.004125
-71.400000	0.015864	-2.380000	2.395864	0.024042 	0.004127
-71.300000	0.015899	-2.376667	2.392566	0.023850 	0.004130
-71.200000	0.015935	-2.373333	2.389268	0.023657 	0.004133
-71.100000	0.015969	-2.370000	2.385969	0.023462 	0.004136
-71.000000	0.016004	-2.366667	2.382671	0.023267 	0.004139
-70.900000	0.016038	-2.363333	2.379371	0.023070 	0.004142
-70.800000	0.016071	-2.360000	2.376071	0.022872 	0.004145
-70.700000	0.016104	-2.356667	2.372771	0.022673 	0.004148
-70.600000	0.016137	-2.353333	2.369470	0.022473 	0.004150
-70.500000	0.016169	-2.350000	2.366169	0.022272 	0.004153
-70.400000	0.016200	-2.346667	2.362867	0.022070 	0.004156
-70.300000	0.016232	-2.343333	2.359565	0.021867 	0.004159
-70.200000	0.016262	-2.340000	2.356262	0.021662 	0.004162
-70.100000	0.016293	-2.336667	2.352960	0.021457 	0.004165
-70.000000	0.016322	-2.333333	2.349655	0.021250 	0.004168
-69.900000	0.016352	-2.330000	2.346352	0.021042 	0.004171
-69.800000	0.016381	-2.326667	2.343048	0.020833 	0.004174
-69.700000	0.016409	-2.323333	2.339742	0.020623 	0.004177
-69.600000	0.016437	-2.320000	2.336437	0.020412 	0.004180
-69.500000	0.016465	-2.316667	2.333132	0.020200 	0.004183
-69.400000	0.016492	-2.313333	2.329825	0.019987 	0.004186
-69.300000	0.016518	-2.310000	2.326518	0.019772 	0.004189
-69.200000	0.016545	-2.306667	2.323212	0.019557 	0.004192
-69.100000	0.016570	-2.303333	2.319903	0.019340 	0.004195
-69.000000	0.016595	-2.300000	2.316595	0.019122 	0.004198
-68.900000	0.016620	-2.296667	2.313287	0.018903 	0.004201
-68.800000	0.016644	-2.293333	2.309977	0.018683 	0.004204
-68.700000	0.016668	-2.290000	2.306668	0.018462 	0.004207
-68.600000	0.016691	-2.286667	2.303358	0.018240 	0.004210
-68.500000	0.016714	-2.283333	2.300047	0.018017 	0.004213
-68.400000	0.016736	-2.280000	2.296736	0.017792 	0.004216
-68.300000	0.016758	-2.276667	2.293425	0.017567 	0.004219
-68.200000	0.016779	-2.273333	2.290112	0.017340 	0.004222
-68.100000	0.016800	-2.270000	2.286800	0.017112 	0.004225
-68.000000	0.016820	-2.266667	2.283487	0.016883 	0.004228
-67.900000	0.016840	-2.263333	2.280173	0.016653 	0.004231
-67.800000	0.016860	-2.260000	2.276860	0.016422 	0.004234
-67.700000	0.016878	-2.256667	2.273545	0.016190 	0.004237
-67.600000	0.016897	-2.253333	2.270230	0.015956 	0.004240
-67.500000	0.016915	-2.250000	2.266915	0.015722 	0.004243
-67.400000	0.016932	-2.246667	2.263599	0.015486 	0.004246
-67.300000	0.016949	-2.243333	2.260282	0.015250 	0.004249
-67.200000	0.016965	-2.240000	2.256965	0.015012 	0.004253
-67.100000	0.016981	-2.236667	2.253648	0.014773 	0.004256
-67.000000	0.016996	-2.233333	2.250329	0.014533 	0.004259
-66.900000	0.017011	-2.230000	2.247011	0.014292 	0.004262
-66.800000	0.017025	-2.226667	2.243692	0.014049 	0.004265
-66.700000	0.017039	-2.223333	2.240372	0.013806 	0.004268
-66.600000	0.017052	-2.220000	2.237052	0.013561 	0.004271
-66.500000	0.017065	-2.216667	2.233732	0.013316 	0.004275
-66.400000	0.017077	-2.213333	2.230410	0.013069 	0.004278
-66.300000	0.017089	-2.210000	2.227089	0.012821 	0.004281
-66.200000	0.017100	-2.206667	2.223767	0.012572 	0.004284
-66.100000	0.017111	-2.203333	2.220444	0.012322 	0.004287
-66.000000	0.017121	-2.200000	2.217121	0.012071 	0.004291
-65.900000	0.017130	-2.196667	2.213797	0.011819 	0.004294
-65.800000	0.017139	-2.193333	2.210472	0.011566 	0.004297
-65.700000	0.017148	-2.190000	2.207148	0.011311 	0.004300
-65.600000	0.017156	-2.186667	2.203823	0.011055 	0.004304
-65.500000	0.017163	-2.183333	2.200496	0.010799 	0.004307
-65.400000	0.017170	-2.180000	2.197170	0.010541 	0.004310
-65.300000	0.017177	-2.176667	2.193844	0.010282 	0.004313
-65.200000	0.017183	-2.173333	2.190516	0.010022 	0.004317
-65.100000	0.017188	-2.170000	2.187188	0.009761 	0.004320
-65.000000	0.017193	-2.166667	2.183860	0.009499 	0.004323
-64.900000	0.017197	-2.163333	2.180530	0.009236 	0.004326
-64.800000	0.017201	-2.160000	2.177201	0.008971 	0.004330
-64.700000	0.017204	-2.156667	2.173871	0.008706 	0.004333
-64.600000	0.017207	-2.153333	2.170540	0.008439 	0.004336
-64.500000	0.017209	-2.150000	2.167209	0.008172 	0.004340
-64.400000	0.017210	-2.146667	2.163877	0.007903 	0.004343
-64.300000	0.017211	-2.143333	2.160544	0.007633 	0.004346
-64.200000	0.017212	-2.140000	2.157212	0.007362 	0.004350
-64.100000	0.017212	-2.136667	2.153879	0.007090 	0.004353
-64.000000	0.017211	-2.133333	2.150544	0.006817 	0.004357
-63.900000	0.017210	-2.130000	2.147210	0.006543 	0.004360
-63.800000	0.017208	-2.126667	2.143875	0.006268 	0.004363
-63.700000	0.017206	-2.123333	2.140539	0.005992 	0.004367
-63.600000	0.017203	-2.120000	2.137203	0.005714 	0.004370
-63.500000	0.017200	-2.116667	2.133867	0.005436 	0.004374
-63.400000	0.017196	-2.113333	2.130529	0.005156 	0.004377
-63.300000	0.017191	-2.110000	2.127191	0.004876 	0.004380
-63.200000	0.017186	-2.106667	2.123853	0.004594 	0.004384
-63.100000	0.017181	-2.103333	2.120514	0.004311 	0.004387
-63.000000	0.017174	-2.100000	2.117174	0.004027 	0.004391
-62.900000	0.017168	-2.096667	2.113835	0.003743 	0.004394
-62.800000	0.017160	-2.093333	2.110493	0.003457 	0.004398
-62.700000	0.017152	-2.090000	2.107152	0.003170 	0.004401
-62.600000	0.017144	-2.086667	2.103811	0.002882 	0.004405
-62.500000	0.017135	-2.083333	2.100468	0.002593 	0.004408
-62.400000	0.017125	-2.080000	2.097125	0.002303 	0.004412
-62.300000	0.017115	-2.076667	2.093782	0.002011 	0.004415
-62.200000	0.017105	-2.073333	2.090438	0.001719 	0.004419
-62.100000	0.017093	-2.070000	2.087093	0.001426 	0.004422
-62.000000	0.017082	-2.066667	2.083749	0.001132 	0.004426
-61.900000	0.017069	-2.063333	2.080402	0.000836 	0.004429
-61.800000	0.017056	-2.060000	2.077056	0.000540 	0.004433
-61.700000	0.017043	-2.056667	2.073710	0.000242 	0.004437
-61.600000	0.017029	-2.053333	2.070362	-0.000056 	0.004440
-61.500000	0.017014	-2.050000	2.067014	-0.000355 	0.004444
-61.400000	0.016999	-2.046667	2.063666	-0.000656 	0.004447
-61.300000	0.016983	-2.043333	2.060316	-0.000957 	0.004451
-61.200000	0.016966	-2.040000	2.056966	-0.001260 	0.004455
-61.100000	0.016949	-2.036667	2.053616	-0.001563 	0.004458
-61.000000	0.016932	-2.033333	2.050265	-0.001868 	0.004462
-60.900000	0.016914	-2.030000	2.046914	-0.002173 	0.004465
-60.800000	0.016895	-2.026667	2.043562	-0.002480 	0.004469
-60.700000	0.016876	-2.023333	2.040209	-0.002787 	0.004473
-60.600000	0.016856	-2.020000	2.036856	-0.003096 	0.004476
-60.500000	0.016835	-2.016667	2.033502	-0.003405 	0.004480
-60.400000	0.016814	-2.013333	2.030147	-0.003716 	0.004484
-60.300000	0.016793	-2.010000	2.026793	-0.004027 	0.004488
-60.200000	0.016771	-2.006667	2.023438	-0.004340 	0.004491
-60.100000	0.016748	-2.003333	2.020081	-0.004653 	0.004495
-60.000000	0.016724	-2.000000	2.016724	-0.004968 	0.004499
-59.900000	0.016701	-1.996667	2.013368	-0.005283 	0.004503
-59.800000	0.016676	-1.993333	2.010009	-0.005599 	0.004506
-59.700000	0.016651	-1.990000	2.006651	-0.005917 	0.004510
-59.600000	0.016625	-1.986667	2.003292	-0.006235 	0.004514
-59.500000	0.016599	-1.983333	1.999932	-0.006554 	0.004518
-59.400000	0.016572	-1.980000	1.996572	-0.006874 	0.004521
-59.300000	0.016545	-1.976667	1.993212	-0.007195 	0.004525
-59.200000	0.016517	-1.973333	1.989850	-0.007517 	0.004529
-59.100000	0.016488	-1.970000	1.986488	-0.007840 	0.004533
-59.000000	0.016459	-1.966667	1.983126	-0.008164 	0.004537
-58.900000	0.016429	-1.963333	1.979762	-0.008489 	0.004541
-58.800000	0.016399	-1.960000	1.976399	-0.008814 	0.004544
-58.700000	0.016368	-1.956667	1.973035	-0.009141 	0.004548
-58.600000	0.016336	-1.953333	1.969669	-0.009468 	0.004552
-58.500000	0.016304	-1.950000	1.966304	-0.009797 	0.004556
-58.400000	0.016272	-1.946667	1.962939	-0.010126 	0.004560
-58.300000	0.016238	-1.943333	1.959571	-0.010456 	0.004564
-58.200000	0.016205	-1.940000	1.956205	-0.010787 	0.004568
-58.100000	0.016170	-1.936667	1.952837	-0.011119 	0.004572
-58.000000	0.016135	-1.933333	1.949468	-0.011452 	0.004576
-57.900000	0.016099	-1.930000	1.946099	-0.011786 	0.004580
-57.800000	0.016063	-1.926667	1.942730	-0.012120 	0.004584
-57.700000	0.016026	-1.923333	1.939359	-0.012456 	0.004588
-57.600000	0.015989	-1.920000	1.935989	-0.012792 	0.004592
-57.500000	0.015951	-1.916667	1.932618	-0.013129 	0.004596
-57.400000	0.015913	-1.913333	1.929246	-0.013467 	0.004600
-57.300000	0.015874	-1.910000	1.925874	-0.013806 	0.004604
-57.200000	0.015834	-1.906667	1.922501	-0.014145 	0.004608
-57.100000	0.015794	-1.903333	1.919127	-0.014486 	0.004612
-57.000000	0.015753	-1.900000	1.915753	-0.014827 	0.004616
-56.900000	0.015711	-1.896667	1.912378	-0.015169 	0.004620
-56.800000	0.015669	-1.893333	1.909002	-0.015512 	0.004624
-56.700000	0.015627	-1.890000	1.905627	-0.015855 	0.004628
-56.600000	0.015584	-1.886667	1.902251	-0.016200 	0.004632
-56.500000	0.015540	-1.883333	1.898873	-0.016545 	0.004636
-56.400000	0.015496	-1.880000	1.895496	-0.016891 	0.004640
-56.300000	0.015451	-1.876667	1.892118	-0.017238 	0.004645
-56.200000	0.015405	-1.873333	1.888738	-0.017585 	0.004649
-56.100000	0.015359	-1.870000	1.885359	-0.017933 	0.004653
-56.000000	0.015312	-1.866667	1.881979	-0.018282 	0.004657
-55.900000	0.015265	-1.863333	1.878598	-0.018632 	0.004661
-55.800000	0.015217	-1.860000	1.875217	-0.018982 	0.004665
-55.700000	0.015169	-1.856667	1.871836	-0.019334 	0.004670
-55.600000	0.015120	-1.853333	1.868453	-0.019685 	0.004674
-55.500000	0.015071	-1.850000	1.865071	-0.020038 	0.004678
-55.400000	0.015021	-1.846667	1.861688	-0.020391 	0.004682
-55.300000	0.014970	-1.843333	1.858303	-0.020745 	0.004687
-55.200000	0.014919	-1.840000	1.854919	-0.021100 	0.004691
-55.100000	0.014867	-1.836667	1.851534	-0.021455 	0.004695
-55.000000	0.014815	-1.833333	1.848148	-0.021811 	0.004699
-54.900000	0.014762	-1.830000	1.844762	-0.022168 	0.004704
-54.800000	0.014708	-1.826667	1.841375	-0.022525 	0.004708
-54.700000	0.014654	-1.823333	1.837987	-0.022883 	0.004712
-54.600000	0.014600	-1.820000	1.834600	-0.023242 	0.004717
-54.500000	0.014544	-1.816667	1.831211	-0.023601 	0.004721
-54.400000	0.014489	-1.813333	1.827822	-0.023961 	0.004726
-54.300000	0.014432	-1.810000	1.824432	-0.024321 	0.004730
-54.200000	0.014375	-1.806667	1.821042	-0.024682 	0.004734
-54.100000	0.014318	-1.803333	1.817651	-0.025044 	0.004739
-54.000000	0.014260	-1.800000	1.814260	-0.025406 	0.004743
-53.900000	0.014202	-1.796667	1.810869	-0.025769 	0.004748
-53.800000	0.014142	-1.793333	1.807475	-0.026132 	0.004752
-53.700000	0.014083	-1.790000	1.804083	-0.026496 	0.004757
-53.600000	0.014023	-1.786667	1.800690	-0.026860 	0.004761
-53.500000	0.013962	-1.783333	1.797295	-0.027225 	0.004765
-53.400000	0.013901	-1.780000	1.793901	-0.027591 	0.004770
-53.300000	0.013839	-1.776667	1.790506	-0.027957 	0.004775
-53.200000	0.013776	-1.773333	1.787109	-0.028323 	0.004779
-53.100000	0.013713	-1.770000	1.783713	-0.028690 	0.004784
-53.000000	0.013650	-1.766667	1.780317	-0.029057 	0.004788
-52.900000	0.013586	-1.763333	1.776919	-0.029425 	0.004793
-52.800000	0.013521	-1.760000	1.773521	-0.029793 	0.004797
-52.700000	0.013456	-1.756667	1.770123	-0.030162 	0.004802
-52.600000	0.013391	-1.753333	1.766724	-0.030531 	0.004807
-52.500000	0.013325	-1.750000	1.763325	-0.030901 	0.004811
-52.400000	0.013258	-1.746667	1.759925	-0.031271 	0.004816
-52.300000	0.013191	-1.743333	1.756524	-0.031641 	0.004820
-52.200000	0.013123	-1.740000	1.753123	-0.032012 	0.004825
-52.100000	0.013055	-1.736667	1.749722	-0.032383 	0.004830
-52.000000	0.012986	-1.733333	1.746319	-0.032755 	0.004835
-51.900000	0.012917	-1.730000	1.742917	-0.033126 	0.004839
-51.800000	0.012847	-1.726667	1.739514	-0.033499 	0.004844
-51.700000	0.012776	-1.723333	1.736109	-0.033871 	0.004849
-51.600000	0.012706	-1.720000	1.732706	-0.034244 	0.004853
-51.500000	0.012634	-1.716667	1.729301	-0.034617 	0.004858
-51.400000	0.012562	-1.713333	1.725895	-0.034990 	0.004863
-51.300000	0.012490	-1.710000	1.722490	-0.035364 	0.004868
-51.200000	0.012417	-1.706667	1.719084	-0.035738 	0.004873
-51.100000	0.012343	-1.703333	1.715676	-0.036112 	0.004878
-51.000000	0.012270	-1.700000	1.712270	-0.036487 	0.004882
-50.900000	0.012195	-1.696667	1.708862	-0.036861 	0.004887
-50.800000	0.012120	-1.693333	1.705453	-0.037236 	0.004892
-50.700000	0.012045	-1.690000	1.702045	-0.037611 	0.004897
-50.600000	0.011969	-1.686667	1.698636	-0.037986 	0.004902
-50.500000	0.011892	-1.683333	1.695225	-0.038361 	0.004907
-50.400000	0.011815	-1.680000	1.691815	-0.038737 	0.004912
-50.300000	0.011738	-1.676667	1.688405	-0.039112 	0.004917
-50.200000	0.011660	-1.673333	1.684993	-0.039488 	0.004922
-50.100000	0.011582	-1.670000	1.681582	-0.039864 	0.004927
-50.000000	0.011503	-1.666667	1.678170	-0.040240 	0.004932
-49.900000	0.011423	-1.663333	1.674756	-0.040616 	0.004937
-49.800000	0.011343	-1.660000	1.671343	-0.040992 	0.004942
-49.700000	0.011263	-1.656667	1.667930	-0.041368 	0.004947
-49.600000	0.011182	-1.653333	1.664515	-0.041744 	0.004952
-49.500000	0.011101	-1.650000	1.661101	-0.042120 	0.004957
-49.400000	0.011019	-1.646667	1.657686	-0.042496 	0.004962
-49.300000	0.010937	-1.643333	1.654270	-0.042872 	0.004967
-49.200000	0.010854	-1.640000	1.650854	-0.043248 	0.004972
-49.100000	0.010771	-1.636667	1.647438	-0.043624 	0.004978
-49.000000	0.010688	-1.633333	1.644021	-0.044000 	0.004983
-48.900000	0.010604	-1.630000	1.640604	-0.044376 	0.004988
-48.800000	0.010519	-1.626667	1.637186	-0.044751 	0.004993