TITLE="Tsunami Runup" 
VARIABLES=x,Z,Ksi,H,B,U 
ZONE I=1100, DATAPACKING=POINT
-100.000000 	-2.457200e-003 	-2.457200e-003 	3.330876e+000 	-3.333333e+000 	-4.094014e-002 
-99.900000 	-2.422292e-003 	-2.422292e-003 	3.327578e+000 	-3.330000e+000 	-4.103381e-002 
-99.800000 	-2.387283e-003 	-2.387283e-003 	3.324279e+000 	-3.326667e+000 	-4.112686e-002 
-99.700000 	-2.352175e-003 	-2.352175e-003 	3.320981e+000 	-3.323333e+000 	-4.121928e-002 
-99.600000 	-2.316966e-003 	-2.316966e-003 	3.317683e+000 	-3.320000e+000 	-4.131108e-002 
-99.500000 	-2.281659e-003 	-2.281659e-003 	3.314385e+000 	-3.316667e+000 	-4.140225e-002 
-99.400000 	-2.246254e-003 	-2.246254e-003 	3.311087e+000 	-3.313333e+000 	-4.149279e-002 
-99.300000 	-2.210751e-003 	-2.210751e-003 	3.307789e+000 	-3.310000e+000 	-4.158269e-002 
-99.200000 	-2.175151e-003 	-2.175151e-003 	3.304492e+000 	-3.306667e+000 	-4.167195e-002 
-99.100000 	-2.139455e-003 	-2.139455e-003 	3.301194e+000 	-3.303333e+000 	-4.176056e-002 
-99.000000 	-2.103663e-003 	-2.103663e-003 	3.297896e+000 	-3.300000e+000 	-4.184853e-002 
-98.900000 	-2.067776e-003 	-2.067776e-003 	3.294599e+000 	-3.296667e+000 	-4.193585e-002 
-98.800000 	-2.031795e-003 	-2.031795e-003 	3.291302e+000 	-3.293333e+000 	-4.202252e-002 
-98.700000 	-1.995720e-003 	-1.995720e-003 	3.288004e+000 	-3.290000e+000 	-4.210853e-002 
-98.600000 	-1.959552e-003 	-1.959552e-003 	3.284707e+000 	-3.286667e+000 	-4.219388e-002 
-98.500000 	-1.923291e-003 	-1.923291e-003 	3.281410e+000 	-3.283333e+000 	-4.227856e-002 
-98.400000 	-1.886939e-003 	-1.886939e-003 	3.278113e+000 	-3.280000e+000 	-4.236258e-002 
-98.300000 	-1.850496e-003 	-1.850496e-003 	3.274816e+000 	-3.276667e+000 	-4.244592e-002 
-98.200000 	-1.813962e-003 	-1.813962e-003 	3.271519e+000 	-3.273333e+000 	-4.252859e-002 
-98.100000 	-1.777339e-003 	-1.777339e-003 	3.268223e+000 	-3.270000e+000 	-4.261058e-002 
-98.000000 	-1.740627e-003 	-1.740627e-003 	3.264926e+000 	-3.266667e+000 	-4.269189e-002 
-97.900000 	-1.703827e-003 	-1.703827e-003 	3.261630e+000 	-3.263333e+000 	-4.277252e-002 
-97.800000 	-1.666939e-003 	-1.666939e-003 	3.258333e+000 	-3.260000e+000 	-4.285245e-002 
-97.700000 	-1.629964e-003 	-1.629964e-003 	3.255037e+000 	-3.256667e+000 	-4.293170e-002 
-97.600000 	-1.592903e-003 	-1.592903e-003 	3.251740e+000 	-3.253333e+000 	-4.301024e-002 
-97.500000 	-1.555757e-003 	-1.555757e-003 	3.248444e+000 	-3.250000e+000 	-4.308809e-002 
-97.400000 	-1.518526e-003 	-1.518526e-003 	3.245148e+000 	-3.246667e+000 	-4.316523e-002 
-97.300000 	-1.481211e-003 	-1.481211e-003 	3.241852e+000 	-3.243333e+000 	-4.324167e-002 
-97.200000 	-1.443813e-003 	-1.443813e-003 	3.238556e+000 	-3.240000e+000 	-4.331740e-002 
-97.100000 	-1.406332e-003 	-1.406332e-003 	3.235260e+000 	-3.236667e+000 	-4.339242e-002 
-97.000000 	-1.368770e-003 	-1.368770e-003 	3.231965e+000 	-3.233333e+000 	-4.346671e-002 
-96.900000 	-1.331127e-003 	-1.331127e-003 	3.228669e+000 	-3.230000e+000 	-4.354029e-002 
-96.800000 	-1.293404e-003 	-1.293404e-003 	3.225373e+000 	-3.226667e+000 	-4.361314e-002 
-96.700000 	-1.255601e-003 	-1.255601e-003 	3.222078e+000 	-3.223333e+000 	-4.368527e-002 
-96.600000 	-1.217720e-003 	-1.217720e-003 	3.218782e+000 	-3.220000e+000 	-4.375666e-002 
-96.500000 	-1.179760e-003 	-1.179760e-003 	3.215487e+000 	-3.216667e+000 	-4.382732e-002 
-96.400000 	-1.141724e-003 	-1.141724e-003 	3.212192e+000 	-3.213333e+000 	-4.389724e-002 
-96.300000 	-1.103612e-003 	-1.103612e-003 	3.208896e+000 	-3.210000e+000 	-4.396642e-002 
-96.200000 	-1.065424e-003 	-1.065424e-003 	3.205601e+000 	-3.206667e+000 	-4.403486e-002 
-96.100000 	-1.027161e-003 	-1.027161e-003 	3.202306e+000 	-3.203333e+000 	-4.410254e-002 
-96.000000 	-9.888246e-004 	-9.888246e-004 	3.199011e+000 	-3.200000e+000 	-4.416948e-002 
-95.900000 	-9.504151e-004 	-9.504151e-004 	3.195716e+000 	-3.196667e+000 	-4.423565e-002 
-95.800000 	-9.119332e-004 	-9.119332e-004 	3.192421e+000 	-3.193333e+000 	-4.430107e-002 
-95.700000 	-8.733799e-004 	-8.733799e-004 	3.189127e+000 	-3.190000e+000 	-4.436573e-002 
-95.600000 	-8.347561e-004 	-8.347561e-004 	3.185832e+000 	-3.186667e+000 	-4.442962e-002 
-95.500000 	-7.960624e-004 	-7.960624e-004 	3.182537e+000 	-3.183333e+000 	-4.449273e-002 
-95.400000 	-7.572998e-004 	-7.572998e-004 	3.179243e+000 	-3.180000e+000 	-4.455508e-002 
-95.300000 	-7.184691e-004 	-7.184691e-004 	3.175948e+000 	-3.176667e+000 	-4.461665e-002 
-95.200000 	-6.795712e-004 	-6.795712e-004 	3.172654e+000 	-3.173333e+000 	-4.467744e-002 
-95.100000 	-6.406069e-004 	-6.406069e-004 	3.169359e+000 	-3.170000e+000 	-4.473744e-002 
-95.000000 	-6.015770e-004 	-6.015770e-004 	3.166065e+000 	-3.166667e+000 	-4.479666e-002 
-94.900000 	-5.624825e-004 	-5.624825e-004 	3.162771e+000 	-3.163333e+000 	-4.485508e-002 
-94.800000 	-5.233241e-004 	-5.233241e-004 	3.159477e+000 	-3.160000e+000 	-4.491271e-002 
-94.700000 	-4.841029e-004 	-4.841029e-004 	3.156183e+000 	-3.156667e+000 	-4.496954e-002 
-94.600000 	-4.448196e-004 	-4.448196e-004 	3.152889e+000 	-3.153333e+000 	-4.502557e-002 
-94.500000 	-4.054751e-004 	-4.054751e-004 	3.149595e+000 	-3.150000e+000 	-4.508080e-002 
-94.400000 	-3.660703e-004 	-3.660703e-004 	3.146301e+000 	-3.146667e+000 	-4.513522e-002 
-94.300000 	-3.266062e-004 	-3.266062e-004 	3.143007e+000 	-3.143333e+000 	-4.518882e-002 
-94.200000 	-2.870835e-004 	-2.870835e-004 	3.139713e+000 	-3.140000e+000 	-4.524161e-002 
-94.100000 	-2.475033e-004 	-2.475033e-004 	3.136419e+000 	-3.136667e+000 	-4.529358e-002 
-94.000000 	-2.078665e-004 	-2.078665e-004 	3.133125e+000 	-3.133333e+000 	-4.534472e-002 
-93.900000 	-1.681739e-004 	-1.681739e-004 	3.129832e+000 	-3.130000e+000 	-4.539504e-002 
-93.800000 	-1.284264e-004 	-1.284264e-004 	3.126538e+000 	-3.126667e+000 	-4.544453e-002 
-93.700000 	-8.862508e-005 	-8.862508e-005 	3.123245e+000 	-3.123333e+000 	-4.549319e-002 
-93.600000 	-4.877078e-005 	-4.877078e-005 	3.119951e+000 	-3.120000e+000 	-4.554101e-002 
-93.500000 	-8.864437e-006 	-8.864437e-006 	3.116658e+000 	-3.116667e+000 	-4.558799e-002 
-93.400000 	3.109299e-005 	3.109299e-005 	3.113364e+000 	-3.113333e+000 	-4.563412e-002 
-93.300000 	7.110056e-005 	7.110056e-005 	3.110071e+000 	-3.110000e+000 	-4.567941e-002 
-93.200000 	1.111573e-004 	1.111573e-004 	3.106778e+000 	-3.106667e+000 	-4.572385e-002 
-93.100000 	1.512623e-004 	1.512623e-004 	3.103485e+000 	-3.103333e+000 	-4.576743e-002 
-93.000000 	1.914146e-004 	1.914146e-004 	3.100191e+000 	-3.100000e+000 	-4.581015e-002 
-92.900000 	2.316131e-004 	2.316131e-004 	3.096898e+000 	-3.096667e+000 	-4.585201e-002 
-92.800000 	2.718570e-004 	2.718570e-004 	3.093605e+000 	-3.093333e+000 	-4.589301e-002 
-92.700000 	3.121452e-004 	3.121452e-004 	3.090312e+000 	-3.090000e+000 	-4.593314e-002 
-92.600000 	3.524768e-004 	3.524768e-004 	3.087019e+000 	-3.086667e+000 	-4.597239e-002 
-92.500000 	3.928508e-004 	3.928508e-004 	3.083726e+000 	-3.083333e+000 	-4.601077e-002 
-92.400000 	4.332661e-004 	4.332661e-004 	3.080433e+000 	-3.080000e+000 	-4.604828e-002 
-92.300000 	4.737219e-004 	4.737219e-004 	3.077140e+000 	-3.076667e+000 	-4.608489e-002 
-92.200000 	5.142170e-004 	5.142170e-004 	3.073848e+000 	-3.073333e+000 	-4.612063e-002 
-92.100000 	5.547504e-004 	5.547504e-004 	3.070555e+000 	-3.070000e+000 	-4.615547e-002 
-92.000000 	5.953213e-004 	5.953213e-004 	3.067262e+000 	-3.066667e+000 	-4.618942e-002 
-91.900000 	6.359284e-004 	6.359284e-004 	3.063969e+000 	-3.063333e+000 	-4.622247e-002 
-91.800000 	6.765709e-004 	6.765709e-004 	3.060677e+000 	-3.060000e+000 	-4.625462e-002 
-91.700000 	7.172476e-004 	7.172476e-004 	3.057384e+000 	-3.056667e+000 	-4.628587e-002 
-91.600000 	7.579576e-004 	7.579576e-004 	3.054091e+000 	-3.053333e+000 	-4.631621e-002 
-91.500000 	7.986998e-004 	7.986998e-004 	3.050799e+000 	-3.050000e+000 	-4.634564e-002 
-91.400000 	8.394732e-004 	8.394732e-004 	3.047506e+000 	-3.046667e+000 	-4.637416e-002 
-91.300000 	8.802767e-004 	8.802767e-004 	3.044214e+000 	-3.043333e+000 	-4.640175e-002 
-91.200000 	9.211092e-004 	9.211092e-004 	3.040921e+000 	-3.040000e+000 	-4.642843e-002 
-91.100000 	9.619697e-004 	9.619697e-004 	3.037629e+000 	-3.036667e+000 	-4.645418e-002 
-91.000000 	1.002857e-003 	1.002857e-003 	3.034336e+000 	-3.033333e+000 	-4.647901e-002 
-90.900000 	1.043771e-003 	1.043771e-003 	3.031044e+000 	-3.030000e+000 	-4.650290e-002 
-90.800000 	1.084709e-003 	1.084709e-003 	3.027751e+000 	-3.026667e+000 	-4.652586e-002 
-90.700000 	1.125670e-003 	1.125670e-003 	3.024459e+000 	-3.023333e+000 	-4.654788e-002 
-90.600000 	1.166655e-003 	1.166655e-003 	3.021167e+000 	-3.020000e+000 	-4.656895e-002 
-90.500000 	1.207661e-003 	1.207661e-003 	3.017874e+000 	-3.016667e+000 	-4.658908e-002 
-90.400000 	1.248687e-003 	1.248687e-003 	3.014582e+000 	-3.013333e+000 	-4.660826e-002 
-90.300000 	1.289733e-003 	1.289733e-003 	3.011290e+000 	-3.010000e+000 	-4.662649e-002 
-90.200000 	1.330797e-003 	1.330797e-003 	3.007997e+000 	-3.006667e+000 	-4.664377e-002 
-90.100000 	1.371878e-003 	1.371878e-003 	3.004705e+000 	-3.003333e+000 	-4.666008e-002 
-90.000000 	1.412975e-003 	1.412975e-003 	3.001413e+000 	-3.000000e+000 	-4.667543e-002 
-89.900000 	1.454088e-003 	1.454088e-003 	2.998121e+000 	-2.996667e+000 	-4.668981e-002 
-89.800000 	1.495213e-003 	1.495213e-003 	2.994829e+000 	-2.993333e+000 	-4.670323e-002 
-89.700000 	1.536352e-003 	1.536352e-003 	2.991536e+000 	-2.990000e+000 	-4.671567e-002 
-89.600000 	1.577502e-003 	1.577502e-003 	2.988244e+000 	-2.986667e+000 	-4.672713e-002 
-89.500000 	1.618662e-003 	1.618662e-003 	2.984952e+000 	-2.983333e+000 	-4.673761e-002 
-89.400000 	1.659832e-003 	1.659832e-003 	2.981660e+000 	-2.980000e+000 	-4.674711e-002 
-89.300000 	1.701010e-003 	1.701010e-003 	2.978368e+000 	-2.976667e+000 	-4.675563e-002 
-89.200000 	1.742195e-003 	1.742195e-003 	2.975076e+000 	-2.973333e+000 	-4.676315e-002 
-89.100000 	1.783385e-003 	1.783385e-003 	2.971783e+000 	-2.970000e+000 	-4.676968e-002 
-89.000000 	1.824580e-003 	1.824580e-003 	2.968491e+000 	-2.966667e+000 	-4.677521e-002 
-88.900000 	1.865779e-003 	1.865779e-003 	2.965199e+000 	-2.963333e+000 	-4.677974e-002 
-88.800000 	1.906980e-003 	1.906980e-003 	2.961907e+000 	-2.960000e+000 	-4.678326e-002 
-88.700000 	1.948182e-003 	1.948182e-003 	2.958615e+000 	-2.956667e+000 	-4.678578e-002 
-88.600000 	1.989384e-003 	1.989384e-003 	2.955323e+000 	-2.953333e+000 	-4.678729e-002 
-88.500000 	2.030585e-003 	2.030585e-003 	2.952031e+000 	-2.950000e+000 	-4.678778e-002 
-88.400000 	2.071783e-003 	2.071783e-003 	2.948738e+000 	-2.946667e+000 	-4.678725e-002 
-88.300000 	2.112978e-003 	2.112978e-003 	2.945446e+000 	-2.943333e+000 	-4.678571e-002 
-88.200000 	2.154168e-003 	2.154168e-003 	2.942154e+000 	-2.940000e+000 	-4.678314e-002 
-88.100000 	2.195351e-003 	2.195351e-003 	2.938862e+000 	-2.936667e+000 	-4.677954e-002 
-88.000000 	2.236528e-003 	2.236528e-003 	2.935570e+000 	-2.933333e+000 	-4.677490e-002 
-87.900000 	2.277696e-003 	2.277696e-003 	2.932278e+000 	-2.930000e+000 	-4.676924e-002 
-87.800000 	2.318855e-003 	2.318855e-003 	2.928986e+000 	-2.926667e+000 	-4.676253e-002 
-87.700000 	2.360003e-003 	2.360003e-003 	2.925693e+000 	-2.923333e+000 	-4.675479e-002 
-87.600000 	2.401139e-003 	2.401139e-003 	2.922401e+000 	-2.920000e+000 	-4.674599e-002 
-87.500000 	2.442261e-003 	2.442261e-003 	2.919109e+000 	-2.916667e+000 	-4.673615e-002 
-87.400000 	2.483369e-003 	2.483369e-003 	2.915817e+000 	-2.913333e+000 	-4.672526e-002 
-87.300000 	2.524461e-003 	2.524461e-003 	2.912524e+000 	-2.910000e+000 	-4.671331e-002 
-87.200000 	2.565536e-003 	2.565536e-003 	2.909232e+000 	-2.906667e+000 	-4.670031e-002 
-87.100000 	2.606593e-003 	2.606593e-003 	2.905940e+000 	-2.903333e+000 	-4.668624e-002 
-87.000000 	2.647631e-003 	2.647631e-003 	2.902648e+000 	-2.900000e+000 	-4.667111e-002 
-86.900000 	2.688647e-003 	2.688647e-003 	2.899355e+000 	-2.896667e+000 	-4.665491e-002 
-86.800000 	2.729642e-003 	2.729642e-003 	2.896063e+000 	-2.893333e+000 	-4.663763e-002 
-86.700000 	2.770614e-003 	2.770614e-003 	2.892771e+000 	-2.890000e+000 	-4.661928e-002 
-86.600000 	2.811561e-003 	2.811561e-003 	2.889478e+000 	-2.886667e+000 	-4.659986e-002 
-86.500000 	2.852482e-003 	2.852482e-003 	2.886186e+000 	-2.883333e+000 	-4.657935e-002 
-86.400000 	2.893376e-003 	2.893376e-003 	2.882893e+000 	-2.880000e+000 	-4.655775e-002 
-86.300000 	2.934242e-003 	2.934242e-003 	2.879601e+000 	-2.876667e+000 	-4.653507e-002 
-86.200000 	2.975078e-003 	2.975078e-003 	2.876308e+000 	-2.873333e+000 	-4.651130e-002 
-86.100000 	3.015883e-003 	3.015883e-003 	2.873016e+000 	-2.870000e+000 	-4.648643e-002 
-86.000000 	3.056656e-003 	3.056656e-003 	2.869723e+000 	-2.866667e+000 	-4.646046e-002 
-85.900000 	3.097396e-003 	3.097396e-003 	2.866431e+000 	-2.863333e+000 	-4.643339e-002 
-85.800000 	3.138101e-003 	3.138101e-003 	2.863138e+000 	-2.860000e+000 	-4.640521e-002 
-85.700000 	3.178770e-003 	3.178770e-003 	2.859845e+000 	-2.856667e+000 	-4.637593e-002 
-85.600000 	3.219401e-003 	3.219401e-003 	2.856553e+000 	-2.853333e+000 	-4.634553e-002 
-85.500000 	3.259994e-003 	3.259994e-003 	2.853260e+000 	-2.850000e+000 	-4.631403e-002 
-85.400000 	3.300547e-003 	3.300547e-003 	2.849967e+000 	-2.846667e+000 	-4.628140e-002 
-85.300000 	3.341059e-003 	3.341059e-003 	2.846674e+000 	-2.843333e+000 	-4.624765e-002 
-85.200000 	3.381528e-003 	3.381528e-003 	2.843382e+000 	-2.840000e+000 	-4.621278e-002 
-85.100000 	3.421953e-003 	3.421953e-003 	2.840089e+000 	-2.836667e+000 	-4.617677e-002 
-85.000000 	3.462333e-003 	3.462333e-003 	2.836796e+000 	-2.833333e+000 	-4.613964e-002 
-84.900000 	3.502667e-003 	3.502667e-003 	2.833503e+000 	-2.830000e+000 	-4.610138e-002 
-84.800000 	3.542952e-003 	3.542952e-003 	2.830210e+000 	-2.826667e+000 	-4.606197e-002 
-84.700000 	3.583189e-003 	3.583189e-003 	2.826917e+000 	-2.823333e+000 	-4.602143e-002 
-84.600000 	3.623374e-003 	3.623374e-003 	2.823623e+000 	-2.820000e+000 	-4.597974e-002 
-84.500000 	3.663508e-003 	3.663508e-003 	2.820330e+000 	-2.816667e+000 	-4.593691e-002 
-84.400000 	3.703589e-003 	3.703589e-003 	2.817037e+000 	-2.813333e+000 	-4.589292e-002 
-84.300000 	3.743615e-003 	3.743615e-003 	2.813744e+000 	-2.810000e+000 	-4.584778e-002 
-84.200000 	3.783585e-003 	3.783585e-003 	2.810450e+000 	-2.806667e+000 	-4.580149e-002 
-84.100000 	3.823498e-003 	3.823498e-003 	2.807157e+000 	-2.803333e+000 	-4.575403e-002 
-84.000000 	3.863353e-003 	3.863353e-003 	2.803863e+000 	-2.800000e+000 	-4.570542e-002 
-83.900000 	3.903147e-003 	3.903147e-003 	2.800570e+000 	-2.796667e+000 	-4.565563e-002 
-83.800000 	3.942880e-003 	3.942880e-003 	2.797276e+000 	-2.793333e+000 	-4.560468e-002 
-83.700000 	3.982550e-003 	3.982550e-003 	2.793983e+000 	-2.790000e+000 	-4.555255e-002 
-83.600000 	4.022156e-003 	4.022156e-003 	2.790689e+000 	-2.786667e+000 	-4.549925e-002 
-83.500000 	4.061697e-003 	4.061697e-003 	2.787395e+000 	-2.783333e+000 	-4.544478e-002 
-83.400000 	4.101171e-003 	4.101171e-003 	2.784101e+000 	-2.780000e+000 	-4.538912e-002 
-83.300000 	4.140577e-003 	4.140577e-003 	2.780807e+000 	-2.776667e+000 	-4.533227e-002 
-83.200000 	4.179913e-003 	4.179913e-003 	2.777513e+000 	-2.773333e+000 	-4.527424e-002 
-83.100000 	4.219178e-003 	4.219178e-003 	2.774219e+000 	-2.770000e+000 	-4.521501e-002 
-83.000000 	4.258371e-003 	4.258371e-003 	2.770925e+000 	-2.766667e+000 	-4.515460e-002 
-82.900000 	4.297491e-003 	4.297491e-003 	2.767631e+000 	-2.763333e+000 	-4.509298e-002 
-82.800000 	4.336535e-003 	4.336535e-003 	2.764337e+000 	-2.760000e+000 	-4.503017e-002 
-82.700000 	4.375503e-003 	4.375503e-003 	2.761042e+000 	-2.756667e+000 	-4.496615e-002 
-82.600000 	4.414392e-003 	4.414392e-003 	2.757748e+000 	-2.753333e+000 	-4.490093e-002 
-82.500000 	4.453203e-003 	4.453203e-003 	2.754453e+000 	-2.750000e+000 	-4.483450e-002 
-82.400000 	4.491933e-003 	4.491933e-003 	2.751159e+000 	-2.746667e+000 	-4.476685e-002 
-82.300000 	4.530580e-003 	4.530580e-003 	2.747864e+000 	-2.743333e+000 	-4.469799e-002 
-82.200000 	4.569145e-003 	4.569145e-003 	2.744569e+000 	-2.740000e+000 	-4.462791e-002 
-82.100000 	4.607624e-003 	4.607624e-003 	2.741274e+000 	-2.736667e+000 	-4.455662e-002 
-82.000000 	4.646017e-003 	4.646017e-003 	2.737979e+000 	-2.733333e+000 	-4.448409e-002 
-81.900000 	4.684323e-003 	4.684323e-003 	2.734684e+000 	-2.730000e+000 	-4.441034e-002 
-81.800000 	4.722539e-003 	4.722539e-003 	2.731389e+000 	-2.726667e+000 	-4.433536e-002 
-81.700000 	4.760665e-003 	4.760665e-003 	2.728094e+000 	-2.723333e+000 	-4.425915e-002 
-81.600000 	4.798699e-003 	4.798699e-003 	2.724799e+000 	-2.720000e+000 	-4.418170e-002 
-81.500000 	4.836639e-003 	4.836639e-003 	2.721503e+000 	-2.716667e+000 	-4.410302e-002 
-81.400000 	4.874485e-003 	4.874485e-003 	2.718208e+000 	-2.713333e+000 	-4.402309e-002 
-81.300000 	4.912235e-003 	4.912235e-003 	2.714912e+000 	-2.710000e+000 	-4.394192e-002 
-81.200000 	4.949887e-003 	4.949887e-003 	2.711617e+000 	-2.706667e+000 	-4.385950e-002 
-81.100000 	4.987439e-003 	4.987439e-003 	2.708321e+000 	-2.703333e+000 	-4.377583e-002 
-81.000000 	5.024892e-003 	5.024892e-003 	2.705025e+000 	-2.700000e+000 	-4.369090e-002 
-80.900000 	5.062242e-003 	5.062242e-003 	2.701729e+000 	-2.696667e+000 	-4.360473e-002 
-80.800000 	5.099490e-003 	5.099490e-003 	2.698433e+000 	-2.693333e+000 	-4.351729e-002 
-80.700000 	5.136632e-003 	5.136632e-003 	2.695137e+000 	-2.690000e+000 	-4.342859e-002 
-80.600000 	5.173668e-003 	5.173668e-003 	2.691840e+000 	-2.686667e+000 	-4.333862e-002 
-80.500000 	5.210597e-003 	5.210597e-003 	2.688544e+000 	-2.683333e+000 	-4.324739e-002 
-80.400000 	5.247417e-003 	5.247417e-003 	2.685247e+000 	-2.680000e+000 	-4.315489e-002 
-80.300000 	5.284126e-003 	5.284126e-003 	2.681951e+000 	-2.676667e+000 	-4.306112e-002 
-80.200000 	5.320723e-003 	5.320723e-003 	2.678654e+000 	-2.673333e+000 	-4.296607e-002 
-80.100000 	5.357207e-003 	5.357207e-003 	2.675357e+000 	-2.670000e+000 	-4.286974e-002 
-80.000000 	5.393576e-003 	5.393576e-003 	2.672060e+000 	-2.666667e+000 	-4.277214e-002 
-79.900000 	5.429829e-003 	5.429829e-003 	2.668763e+000 	-2.663333e+000 	-4.267324e-002 
-79.800000 	5.465964e-003 	5.465964e-003 	2.665466e+000 	-2.660000e+000 	-4.257307e-002 
-79.700000 	5.501980e-003 	5.501980e-003 	2.662169e+000 	-2.656667e+000 	-4.247160e-002 
-79.600000 	5.537875e-003 	5.537875e-003 	2.658871e+000 	-2.653333e+000 	-4.236884e-002 
-79.500000 	5.573648e-003 	5.573648e-003 	2.655574e+000 	-2.650000e+000 	-4.226479e-002 
-79.400000 	5.609298e-003 	5.609298e-003 	2.652276e+000 	-2.646667e+000 	-4.215944e-002 
-79.300000 	5.644823e-003 	5.644823e-003 	2.648978e+000 	-2.643333e+000 	-4.205279e-002 
-79.200000 	5.680222e-003 	5.680222e-003 	2.645680e+000 	-2.640000e+000 	-4.194484e-002 
-79.100000 	5.715493e-003 	5.715493e-003 	2.642382e+000 	-2.636667e+000 	-4.183558e-002 
-79.000000 	5.750634e-003 	5.750634e-003 	2.639084e+000 	-2.633333e+000 	-4.172502e-002 
-78.900000 	5.785645e-003 	5.785645e-003 	2.635786e+000 	-2.630000e+000 	-4.161314e-002 
-78.800000 	5.820524e-003 	5.820524e-003 	2.632487e+000 	-2.626667e+000 	-4.149996e-002 
-78.700000 	5.855269e-003 	5.855269e-003 	2.629189e+000 	-2.623333e+000 	-4.138546e-002 
-78.600000 	5.889879e-003 	5.889879e-003 	2.625890e+000 	-2.620000e+000 	-4.126964e-002 
-78.500000 	5.924352e-003 	5.924352e-003 	2.622591e+000 	-2.616667e+000 	-4.115250e-002 
-78.400000 	5.958688e-003 	5.958688e-003 	2.619292e+000 	-2.613333e+000 	-4.103404e-002 
-78.300000 	5.992884e-003 	5.992884e-003 	2.615993e+000 	-2.610000e+000 	-4.091425e-002 
-78.200000 	6.026939e-003 	6.026939e-003 	2.612694e+000 	-2.606667e+000 	-4.079314e-002 
-78.100000 	6.060852e-003 	6.060852e-003 	2.609394e+000 	-2.603333e+000 	-4.067069e-002 
-78.000000 	6.094621e-003 	6.094621e-003 	2.606095e+000 	-2.600000e+000 	-4.054692e-002 
-77.900000 	6.128245e-003 	6.128245e-003 	2.602795e+000 	-2.596667e+000 	-4.042181e-002 
-77.800000 	6.161722e-003 	6.161722e-003 	2.599495e+000 	-2.593333e+000 	-4.029536e-002 
-77.700000 	6.195052e-003 	6.195052e-003 	2.596195e+000 	-2.590000e+000 	-4.016757e-002 
-77.600000 	6.228231e-003 	6.228231e-003 	2.592895e+000 	-2.586667e+000 	-4.003844e-002 
-77.500000 	6.261260e-003 	6.261260e-003 	2.589595e+000 	-2.583333e+000 	-3.990797e-002 
-77.400000 	6.294136e-003 	6.294136e-003 	2.586294e+000 	-2.580000e+000 	-3.977615e-002 
-77.300000 	6.326858e-003 	6.326858e-003 	2.582994e+000 	-2.576667e+000 	-3.964298e-002 
-77.200000 	6.359425e-003 	6.359425e-003 	2.579693e+000 	-2.573333e+000 	-3.950846e-002 
-77.100000 	6.391835e-003 	6.391835e-003 	2.576392e+000 	-2.570000e+000 	-3.937258e-002 
-77.000000 	6.424087e-003 	6.424087e-003 	2.573091e+000 	-2.566667e+000 	-3.923535e-002 
-76.900000 	6.456179e-003 	6.456179e-003 	2.569790e+000 	-2.563333e+000 	-3.909677e-002 
-76.800000 	6.488111e-003 	6.488111e-003 	2.566488e+000 	-2.560000e+000 	-3.895682e-002 
-76.700000 	6.519879e-003 	6.519879e-003 	2.563187e+000 	-2.556667e+000 	-3.881551e-002 
-76.600000 	6.551483e-003 	6.551483e-003 	2.559885e+000 	-2.553333e+000 	-3.867284e-002 
-76.500000 	6.582922e-003 	6.582922e-003 	2.556583e+000 	-2.550000e+000 	-3.852880e-002 
-76.400000 	6.614194e-003 	6.614194e-003 	2.553281e+000 	-2.546667e+000 	-3.838339e-002 
-76.300000 	6.645298e-003 	6.645298e-003 	2.549979e+000 	-2.543333e+000 	-3.823661e-002 
-76.200000 	6.676232e-003 	6.676232e-003 	2.546676e+000 	-2.540000e+000 	-3.808845e-002 
-76.100000 	6.706995e-003 	6.706995e-003 	2.543374e+000 	-2.536667e+000 	-3.793893e-002 
-76.000000 	6.737585e-003 	6.737585e-003 	2.540071e+000 	-2.533333e+000 	-3.778802e-002 
-75.900000 	6.768001e-003 	6.768001e-003 	2.536768e+000 	-2.530000e+000 	-3.763574e-002 
-75.800000 	6.798242e-003 	6.798242e-003 	2.533465e+000 	-2.526667e+000 	-3.748207e-002 
-75.700000 	6.828305e-003 	6.828305e-003 	2.530162e+000 	-2.523333e+000 	-3.732703e-002 
-75.600000 	6.858190e-003 	6.858190e-003 	2.526858e+000 	-2.520000e+000 	-3.717060e-002 
-75.500000 	6.887896e-003 	6.887896e-003 	2.523555e+000 	-2.516667e+000 	-3.701278e-002 
-75.400000 	6.917420e-003 	6.917420e-003 	2.520251e+000 	-2.513333e+000 	-3.685357e-002 
-75.300000 	6.946761e-003 	6.946761e-003 	2.516947e+000 	-2.510000e+000 	-3.669297e-002 
-75.200000 	6.975919e-003 	6.975919e-003 	2.513643e+000 	-2.506667e+000 	-3.653098e-002 
-75.100000 	7.004891e-003 	7.004891e-003 	2.510338e+000 	-2.503333e+000 	-3.636760e-002 
-75.000000 	7.033676e-003 	7.033676e-003 	2.507034e+000 	-2.500000e+000 	-3.620281e-002 
-74.900000 	7.062273e-003 	7.062273e-003 	2.503729e+000 	-2.496667e+000 	-3.603664e-002 
-74.800000 	7.090680e-003 	7.090680e-003 	2.500424e+000 	-2.493333e+000 	-3.586906e-002 
-74.700000 	7.118896e-003 	7.118896e-003 	2.497119e+000 	-2.490000e+000 	-3.570008e-002 
-74.600000 	7.146919e-003 	7.146919e-003 	2.493814e+000 	-2.486667e+000 	-3.552969e-002 
-74.500000 	7.174749e-003 	7.174749e-003 	2.490508e+000 	-2.483333e+000 	-3.535791e-002 
-74.400000 	7.202383e-003 	7.202383e-003 	2.487202e+000 	-2.480000e+000 	-3.518471e-002 
-74.300000 	7.229820e-003 	7.229820e-003 	2.483896e+000 	-2.476667e+000 	-3.501011e-002 
-74.200000 	7.257060e-003 	7.257060e-003 	2.480590e+000 	-2.473333e+000 	-3.483410e-002 
-74.100000 	7.284100e-003 	7.284100e-003 	2.477284e+000 	-2.470000e+000 	-3.465667e-002 
-74.000000 	7.310939e-003 	7.310939e-003 	2.473978e+000 	-2.466667e+000 	-3.447784e-002 
-73.900000 	7.337575e-003 	7.337575e-003 	2.470671e+000 	-2.463333e+000 	-3.429759e-002 
-73.800000 	7.364008e-003 	7.364008e-003 	2.467364e+000 	-2.460000e+000 	-3.411592e-002 
-73.700000 	7.390236e-003 	7.390236e-003 	2.464057e+000 	-2.456667e+000 	-3.393283e-002 
-73.600000 	7.416258e-003 	7.416258e-003 	2.460750e+000 	-2.453333e+000 	-3.374833e-002 
-73.500000 	7.442071e-003 	7.442071e-003 	2.457442e+000 	-2.450000e+000 	-3.356241e-002 
-73.400000 	7.467676e-003 	7.467676e-003 	2.454134e+000 	-2.446667e+000 	-3.337506e-002 
-73.300000 	7.493070e-003 	7.493070e-003 	2.450826e+000 	-2.443333e+000 	-3.318629e-002 
-73.200000 	7.518252e-003 	7.518252e-003 	2.447518e+000 	-2.440000e+000 	-3.299610e-002 
-73.100000 	7.543221e-003 	7.543221e-003 	2.444210e+000 	-2.436667e+000 	-3.280448e-002 
-73.000000 	7.567975e-003 	7.567975e-003 	2.440901e+000 	-2.433333e+000 	-3.261144e-002 
-72.900000 	7.592514e-003 	7.592514e-003 	2.437593e+000 	-2.430000e+000 	-3.241696e-002 
-72.800000 	7.616835e-003 	7.616835e-003 	2.434284e+000 	-2.426667e+000 	-3.222106e-002 
-72.700000 	7.640937e-003 	7.640937e-003 	2.430974e+000 	-2.423333e+000 	-3.202372e-002 
-72.600000 	7.664820e-003 	7.664820e-003 	2.427665e+000 	-2.420000e+000 	-3.182496e-002 
-72.500000 	7.688481e-003 	7.688481e-003 	2.424355e+000 	-2.416667e+000 	-3.162476e-002 
-72.400000 	7.711920e-003 	7.711920e-003 	2.421045e+000 	-2.413333e+000 	-3.142313e-002 
-72.300000 	7.735135e-003 	7.735135e-003 	2.417735e+000 	-2.410000e+000 	-3.122006e-002 
-72.200000 	7.758124e-003 	7.758124e-003 	2.414425e+000 	-2.406667e+000 	-3.101555e-002 
-72.100000 	7.780887e-003 	7.780887e-003 	2.411114e+000 	-2.403333e+000 	-3.080961e-002 
-72.000000 	7.803422e-003 	7.803422e-003 	2.407803e+000 	-2.400000e+000 	-3.060223e-002 
-71.900000 	7.825728e-003 	7.825728e-003 	2.404492e+000 	-2.396667e+000 	-3.039341e-002 
-71.800000 	7.847804e-003 	7.847804e-003 	2.401181e+000 	-2.393333e+000 	-3.018315e-002 
-71.700000 	7.869647e-003 	7.869647e-003 	2.397870e+000 	-2.390000e+000 	-2.997145e-002 
-71.600000 	7.891258e-003 	7.891258e-003 	2.394558e+000 	-2.386667e+000 	-2.975831e-002 
-71.500000 	7.912634e-003 	7.912634e-003 	2.391246e+000 	-2.383333e+000 	-2.954373e-002 
-71.400000 	7.933775e-003 	7.933775e-003 	2.387934e+000 	-2.380000e+000 	-2.932770e-002 
-71.300000 	7.954679e-003 	7.954679e-003 	2.384621e+000 	-2.376667e+000 	-2.911023e-002 
-71.200000 	7.975345e-003 	7.975345e-003 	2.381309e+000 	-2.373333e+000 	-2.889131e-002 
-71.100000 	7.995771e-003 	7.995771e-003 	2.377996e+000 	-2.370000e+000 	-2.867095e-002 
-71.000000 	8.015957e-003 	8.015957e-003 	2.374683e+000 	-2.366667e+000 	-2.844914e-002 
-70.900000 	8.035901e-003 	8.035901e-003 	2.371369e+000 	-2.363333e+000 	-2.822588e-002 
-70.800000 	8.055601e-003 	8.055601e-003 	2.368056e+000 	-2.360000e+000 	-2.800118e-002 
-70.700000 	8.075058e-003 	8.075058e-003 	2.364742e+000 	-2.356667e+000 	-2.777503e-002 
-70.600000 	8.094268e-003 	8.094268e-003 	2.361428e+000 	-2.353333e+000 	-2.754743e-002 
-70.500000 	8.113232e-003 	8.113232e-003 	2.358113e+000 	-2.350000e+000 	-2.731838e-002 
-70.400000 	8.131948e-003 	8.131948e-003 	2.354799e+000 	-2.346667e+000 	-2.708789e-002 
-70.300000 	8.150415e-003 	8.150415e-003 	2.351484e+000 	-2.343333e+000 	-2.685594e-002 
-70.200000 	8.168631e-003 	8.168631e-003 	2.348169e+000 	-2.340000e+000 	-2.662255e-002 
-70.100000 	8.186596e-003 	8.186596e-003 	2.344853e+000 	-2.336667e+000 	-2.638770e-002 
-70.000000 	8.204307e-003 	8.204307e-003 	2.341538e+000 	-2.333333e+000 	-2.615140e-002 
-69.900000 	8.221765e-003 	8.221765e-003 	2.338222e+000 	-2.330000e+000 	-2.591366e-002 
-69.800000 	8.238968e-003 	8.238968e-003 	2.334906e+000 	-2.326667e+000 	-2.567446e-002 
-69.700000 	8.255914e-003 	8.255914e-003 	2.331589e+000 	-2.323333e+000 	-2.543381e-002 
-69.600000 	8.272602e-003 	8.272602e-003 	2.328273e+000 	-2.320000e+000 	-2.519171e-002 
-69.500000 	8.289032e-003 	8.289032e-003 	2.324956e+000 	-2.316667e+000 	-2.494816e-002 
-69.400000 	8.305203e-003 	8.305203e-003 	2.321639e+000 	-2.313333e+000 	-2.470315e-002 
-69.300000 	8.321112e-003 	8.321112e-003 	2.318321e+000 	-2.310000e+000 	-2.445670e-002 
-69.200000 	8.336759e-003 	8.336759e-003 	2.315003e+000 	-2.306667e+000 	-2.420879e-002 
-69.100000 	8.352143e-003 	8.352143e-003 	2.311685e+000 	-2.303333e+000 	-2.395944e-002 
-69.000000 	8.367263e-003 	8.367263e-003 	2.308367e+000 	-2.300000e+000 	-2.370863e-002 
-68.900000 	8.382117e-003 	8.382117e-003 	2.305049e+000 	-2.296667e+000 	-2.345637e-002 
-68.800000 	8.396705e-003 	8.396705e-003 	2.301730e+000 	-2.293333e+000 	-2.320267e-002 
-68.700000 	8.411025e-003 	8.411025e-003 	2.298411e+000 	-2.290000e+000 	-2.294751e-002 
-68.600000 	8.425076e-003 	8.425076e-003 	2.295092e+000 	-2.286667e+000 	-2.269090e-002 
-68.500000 	8.438858e-003 	8.438858e-003 	2.291772e+000 	-2.283333e+000 	-2.243284e-002 
-68.400000 	8.452368e-003 	8.452368e-003 	2.288452e+000 	-2.280000e+000 	-2.217334e-002 
-68.300000 	8.465607e-003 	8.465607e-003 	2.285132e+000 	-2.276667e+000 	-2.191238e-002 
-68.200000 	8.478573e-003 	8.478573e-003 	2.281812e+000 	-2.273333e+000 	-2.164998e-002 
-68.100000 	8.491265e-003 	8.491265e-003 	2.278491e+000 	-2.270000e+000 	-2.138613e-002 
-68.000000 	8.503682e-003 	8.503682e-003 	2.275170e+000 	-2.266667e+000 	-2.112084e-002 
-67.900000 	8.515823e-003 	8.515823e-003 	2.271849e+000 	-2.263333e+000 	-2.085409e-002 
-67.800000 	8.527687e-003 	8.527687e-003 	2.268528e+000 	-2.260000e+000 	-2.058591e-002 
-67.700000 	8.539273e-003 	8.539273e-003 	2.265206e+000 	-2.256667e+000 	-2.031627e-002 
-67.600000 	8.550580e-003 	8.550580e-003 	2.261884e+000 	-2.253333e+000 	-2.004520e-002 
-67.500000 	8.561606e-003 	8.561606e-003 	2.258562e+000 	-2.250000e+000 	-1.977268e-002 
-67.400000 	8.572352e-003 	8.572352e-003 	2.255239e+000 	-2.246667e+000 	-1.949872e-002 
-67.300000 	8.582816e-003 	8.582816e-003 	2.251916e+000 	-2.243333e+000 	-1.922331e-002 
-67.200000 	8.592997e-003 	8.592997e-003 	2.248593e+000 	-2.240000e+000 	-1.894647e-002 
-67.100000 	8.602894e-003 	8.602894e-003 	2.245270e+000 	-2.236667e+000 	-1.866819e-002 
-67.000000 	8.612506e-003 	8.612506e-003 	2.241946e+000 	-2.233333e+000 	-1.838847e-002 
-66.900000 	8.621832e-003 	8.621832e-003 	2.238622e+000 	-2.230000e+000 	-1.810731e-002 
-66.800000 	8.630872e-003 	8.630872e-003 	2.235298e+000 	-2.226667e+000 	-1.782472e-002 
-66.700000 	8.639624e-003 	8.639624e-003 	2.231973e+000 	-2.223333e+000 	-1.754069e-002 