VARIABLES = X,Ksi,B,H,U,tau
ZONE T="Time 0.000000", I=2000, DATAPACKING=POINT
0.000000	10.000000	0.000000	10.000000	-25.000000 	0.000707
0.050000	10.000000	0.000000	10.000000	-25.000000 	0.000707
0.100000	10.000000	0.000000	10.000000	-25.000000 	0.000707
0.150000	10.000000	0.000000	10.000000	-25.000000 	0.000707
0.200000	10.000000	0.000000	10.000000	-25.000000 	0.000707
0.250000	10.000000	0.000000	10.000000	-25.000000 	0.000707
0.300000	10.000000	0.000000	10.000000	-25.000000 	0.000707
0.350000	10.000000	0.000000	10.000000	-25.000000 	0.000707
0.400000	10.000000	0.000000	10.000000	-25.000000 	0.000707
0.450000	10.000000	0.000000	10.000000	-25.000000 	0.000707
0.500000	10.000000	0.000000	10.000000	-25.000000 	0.000707
0.550000	10.000000	0.000000	10.000000	-25.000000 	0.000707
0.600000	10.000000	0.000000	10.000000	-25.000000 	0.000707
0.650000	10.000000	0.000000	10.000000	-25.000000 	0.000707
0.700000	10.000000	0.000000	10.000000	-25.000000 	0.000707
0.750000	10.000000	0.000000	10.000000	-25.000000 	0.000707
0.800000	10.000000	0.000000	10.000000	-25.000000 	0.000707
0.850000	10.000000	0.000000	10.000000	-25.000000 	0.000707
0.900000	10.000000	0.000000	10.000000	-25.000000 	0.000707
0.950000	10.000000	0.000000	10.000000	-25.000000 	0.000707
1.000000	10.000000	0.000000	10.000000	-25.000000 	0.000707
1.050000	10.000000	0.000000	10.000000	-25.000000 	0.000707
1.100000	10.000000	0.000000	10.000000	-25.000000 	0.000707
1.150000	10.000000	0.000000	10.000000	-25.000000 	0.000707
1.200000	10.000000	0.000000	10.000000	-25.000000 	0.000707
1.250000	10.000000	0.000000	10.000000	-25.000000 	0.000707
1.300000	10.000000	0.000000	10.000000	-25.000000 	0.000707
1.350000	10.000000	0.000000	10.000000	-25.000000 	0.000707
1.400000	10.000000	0.000000	10.000000	-25.000000 	0.000707
1.450000	10.000000	0.000000	10.000000	-25.000000 	0.000707
1.500000	10.000000	0.000000	10.000000	-25.000000 	0.000707
1.550000	10.000000	0.000000	10.000000	-25.000000 	0.000707
1.600000	10.000000	0.000000	10.000000	-25.000000 	0.000707
1.650000	10.000000	0.000000	10.000000	-25.000000 	0.000707
1.700000	10.000000	0.000000	10.000000	-25.000000 	0.000707
1.750000	10.000000	0.000000	10.000000	-25.000000 	0.000707
1.800000	10.000000	0.000000	10.000000	-25.000000 	0.000707
1.850000	10.000000	0.000000	10.000000	-25.000000 	0.000707
1.900000	10.000000	0.000000	10.000000	-25.000000 	0.000707
1.950000	10.000000	0.000000	10.000000	-25.000000 	0.000707
2.000000	10.000000	0.000000	10.000000	-25.000000 	0.000707
2.050000	10.000000	0.000000	10.000000	-25.000000 	0.000707
2.100000	10.000000	0.000000	10.000000	-25.000000 	0.000707
2.150000	10.000000	0.000000	10.000000	-25.000000 	0.000707
2.200000	10.000000	0.000000	10.000000	-25.000000 	0.000707
2.250000	10.000000	0.000000	10.000000	-25.000000 	0.000707
2.300000	10.000000	0.000000	10.000000	-25.000000 	0.000707
2.350000	10.000000	0.000000	10.000000	-25.000000 	0.000707
2.400000	10.000000	0.000000	10.000000	-25.000000 	0.000707
2.450000	10.000000	0.000000	10.000000	-25.000000 	0.000707
2.500000	10.000000	0.000000	10.000000	-25.000000 	0.000707
2.550000	10.000000	0.000000	10.000000	-25.000000 	0.000707
2.600000	10.000000	0.000000	10.000000	-25.000000 	0.000707
2.650000	10.000000	0.000000	10.000000	-25.000000 	0.000707
2.700000	10.000000	0.000000	10.000000	-25.000000 	0.000707
2.750000	10.000000	0.000000	10.000000	-25.000000 	0.000707
2.800000	10.000000	0.000000	10.000000	-25.000000 	0.000707
2.850000	10.000000	0.000000	10.000000	-25.000000 	0.000707
2.900000	10.000000	0.000000	10.000000	-25.000000 	0.000707
2.950000	10.000000	0.000000	10.000000	-25.000000 	0.000707
3.000000	10.000000	0.000000	10.000000	-25.000000 	0.000707
3.050000	10.000000	0.000000	10.000000	-25.000000 	0.000707
3.100000	10.000000	0.000000	10.000000	-25.000000 	0.000707
3.150000	10.000000	0.000000	10.000000	-25.000000 	0.000707
3.200000	10.000000	0.000000	10.000000	-25.000000 	0.000707
3.250000	10.000000	0.000000	10.000000	-25.000000 	0.000707
3.300000	10.000000	0.000000	10.000000	-25.000000 	0.000707
3.350000	10.000000	0.000000	10.000000	-25.000000 	0.000707
3.400000	10.000000	0.000000	10.000000	-25.000000 	0.000707
3.450000	10.000000	0.000000	10.000000	-25.000000 	0.000707
3.500000	10.000000	0.000000	10.000000	-25.000000 	0.000707
3.550000	10.000000	0.000000	10.000000	-25.000000 	0.000707
3.600000	10.000000	0.000000	10.000000	-25.000000 	0.000707
3.650000	10.000000	0.000000	10.000000	-25.000000 	0.000707
3.700000	10.000000	0.000000	10.000000	-25.000000 	0.000707
3.750000	10.000000	0.000000	10.000000	-25.000000 	0.000707
3.800000	10.000000	0.000000	10.000000	-25.000000 	0.000707
3.850000	10.000000	0.000000	10.000000	-25.000000 	0.000707
3.900000	10.000000	0.000000	10.000000	-25.000000 	0.000707
3.950000	10.000000	0.000000	10.000000	-25.000000 	0.000707
4.000000	10.000000	0.000000	10.000000	-25.000000 	0.000707
4.050000	10.000000	0.000000	10.000000	-25.000000 	0.000707
4.100000	10.000000	0.000000	10.000000	-25.000000 	0.000707
4.150000	10.000000	0.000000	10.000000	-25.000000 	0.000707
4.200000	10.000000	0.000000	10.000000	-25.000000 	0.000707
4.250000	10.000000	0.000000	10.000000	-25.000000 	0.000707
4.300000	10.000000	0.000000	10.000000	-25.000000 	0.000707
4.350000	10.000000	0.000000	10.000000	-25.000000 	0.000707
4.400000	10.000000	0.000000	10.000000	-25.000000 	0.000707
4.450000	10.000000	0.000000	10.000000	-25.000000 	0.000707
4.500000	10.000000	0.000000	10.000000	-25.000000 	0.000707
4.550000	10.000000	0.000000	10.000000	-25.000000 	0.000707
4.600000	10.000000	0.000000	10.000000	-25.000000 	0.000707
4.650000	10.000000	0.000000	10.000000	-25.000000 	0.000707
4.700000	10.000000	0.000000	10.000000	-25.000000 	0.000707
4.750000	10.000000	0.000000	10.000000	-25.000000 	0.000707
4.800000	10.000000	0.000000	10.000000	-25.000000 	0.000707
4.850000	10.000000	0.000000	10.000000	-25.000000 	0.000707
4.900000	10.000000	0.000000	10.000000	-25.000000 	0.000707
4.950000	10.000000	0.000000	10.000000	-25.000000 	0.000707
5.000000	10.000000	0.000000	10.000000	-25.000000 	0.000707
5.050000	10.000000	0.000000	10.000000	-25.000000 	0.000707
5.100000	10.000000	0.000000	10.000000	-25.000000 	0.000707
5.150000	10.000000	0.000000	10.000000	-25.000000 	0.000707
5.200000	10.000000	0.000000	10.000000	-25.000000 	0.000707
5.250000	10.000000	0.000000	10.000000	-25.000000 	0.000707
5.300000	10.000000	0.000000	10.000000	-25.000000 	0.000707
5.350000	10.000000	0.000000	10.000000	-25.000000 	0.000707
5.400000	10.000000	0.000000	10.000000	-25.000000 	0.000707
5.450000	10.000000	0.000000	10.000000	-25.000000 	0.000707
5.500000	10.000000	0.000000	10.000000	-25.000000 	0.000707
5.550000	10.000000	0.000000	10.000000	-25.000000 	0.000707
5.600000	10.000000	0.000000	10.000000	-25.000000 	0.000707
5.650000	10.000000	0.000000	10.000000	-25.000000 	0.000707
5.700000	10.000000	0.000000	10.000000	-25.000000 	0.000707
5.750000	10.000000	0.000000	10.000000	-25.000000 	0.000707
5.800000	10.000000	0.000000	10.000000	-25.000000 	0.000707
5.850000	10.000000	0.000000	10.000000	-25.000000 	0.000707
5.900000	10.000000	0.000000	10.000000	-25.000000 	0.000707
5.950000	10.000000	0.000000	10.000000	-25.000000 	0.000707
6.000000	10.000000	0.000000	10.000000	-25.000000 	0.000707
6.050000	10.000000	0.000000	10.000000	-25.000000 	0.000707
6.100000	10.000000	0.000000	10.000000	-25.000000 	0.000707
6.150000	10.000000	0.000000	10.000000	-25.000000 	0.000707
6.200000	10.000000	0.000000	10.000000	-25.000000 	0.000707
6.250000	10.000000	0.000000	10.000000	-25.000000 	0.000707
6.300000	10.000000	0.000000	10.000000	-25.000000 	0.000707
6.350000	10.000000	0.000000	10.000000	-25.000000 	0.000707
6.400000	10.000000	0.000000	10.000000	-25.000000 	0.000707
6.450000	10.000000	0.000000	10.000000	-25.000000 	0.000707
6.500000	10.000000	0.000000	10.000000	-25.000000 	0.000707
6.550000	10.000000	0.000000	10.000000	-25.000000 	0.000707
6.600000	10.000000	0.000000	10.000000	-25.000000 	0.000707
6.650000	10.000000	0.000000	10.000000	-25.000000 	0.000707
6.700000	10.000000	0.000000	10.000000	-25.000000 	0.000707
6.750000	10.000000	0.000000	10.000000	-25.000000 	0.000707
6.800000	10.000000	0.000000	10.000000	-25.000000 	0.000707
6.850000	10.000000	0.000000	10.000000	-25.000000 	0.000707
6.900000	10.000000	0.000000	10.000000	-25.000000 	0.000707
6.950000	10.000000	0.000000	10.000000	-25.000000 	0.000707
7.000000	10.000000	0.000000	10.000000	-25.000000 	0.000707
7.050000	10.000000	0.000000	10.000000	-25.000000 	0.000707
7.100000	10.000000	0.000000	10.000000	-25.000000 	0.000707
7.150000	10.000000	0.000000	10.000000	-25.000000 	0.000707
7.200000	10.000000	0.000000	10.000000	-25.000000 	0.000707
7.250000	10.000000	0.000000	10.000000	-25.000000 	0.000707
7.300000	10.000000	0.000000	10.000000	-25.000000 	0.000707
7.350000	10.000000	0.000000	10.000000	-25.000000 	0.000707
7.400000	10.000000	0.000000	10.000000	-25.000000 	0.000707
7.450000	10.000000	0.000000	10.000000	-25.000000 	0.000707
7.500000	10.000000	0.000000	10.000000	-25.000000 	0.000707
7.550000	10.000000	0.000000	10.000000	-25.000000 	0.000707
7.600000	10.000000	0.000000	10.000000	-25.000000 	0.000707
7.650000	10.000000	0.000000	10.000000	-25.000000 	0.000707
7.700000	10.000000	0.000000	10.000000	-25.000000 	0.000707
7.750000	10.000000	0.000000	10.000000	-25.000000 	0.000707
7.800000	10.000000	0.000000	10.000000	-25.000000 	0.000707
7.850000	10.000000	0.000000	10.000000	-25.000000 	0.000707
7.900000	10.000000	0.000000	10.000000	-25.000000 	0.000707
7.950000	10.000000	0.000000	10.000000	-25.000000 	0.000707
8.000000	10.000000	0.000000	10.000000	-25.000000 	0.000707
8.050000	10.000000	0.000000	10.000000	-25.000000 	0.000707
8.100000	10.000000	0.000000	10.000000	-25.000000 	0.000707
8.150000	10.000000	0.000000	10.000000	-25.000000 	0.000707
8.200000	10.000000	0.000000	10.000000	-25.000000 	0.000707
8.250000	10.000000	0.000000	10.000000	-25.000000 	0.000707
8.300000	10.000000	0.000000	10.000000	-25.000000 	0.000707
8.350000	10.000000	0.000000	10.000000	-25.000000 	0.000707
8.400000	10.000000	0.000000	10.000000	-25.000000 	0.000707
8.450000	10.000000	0.000000	10.000000	-25.000000 	0.000707
8.500000	10.000000	0.000000	10.000000	-25.000000 	0.000707
8.550000	10.000000	0.000000	10.000000	-25.000000 	0.000707
8.600000	10.000000	0.000000	10.000000	-25.000000 	0.000707
8.650000	10.000000	0.000000	10.000000	-25.000000 	0.000707
8.700000	10.000000	0.000000	10.000000	-25.000000 	0.000707
8.750000	10.000000	0.000000	10.000000	-25.000000 	0.000707
8.800000	10.000000	0.000000	10.000000	-25.000000 	0.000707
8.850000	10.000000	0.000000	10.000000	-25.000000 	0.000707
8.900000	10.000000	0.000000	10.000000	-25.000000 	0.000707
8.950000	10.000000	0.000000	10.000000	-25.000000 	0.000707
9.000000	10.000000	0.000000	10.000000	-25.000000 	0.000707
9.050000	10.000000	0.000000	10.000000	-25.000000 	0.000707
9.100000	10.000000	0.000000	10.000000	-25.000000 	0.000707
9.150000	10.000000	0.000000	10.000000	-25.000000 	0.000707
9.200000	10.000000	0.000000	10.000000	-25.000000 	0.000707
9.250000	10.000000	0.000000	10.000000	-25.000000 	0.000707
9.300000	10.000000	0.000000	10.000000	-25.000000 	0.000707
9.350000	10.000000	0.000000	10.000000	-25.000000 	0.000707
9.400000	10.000000	0.000000	10.000000	-25.000000 	0.000707
9.450000	10.000000	0.000000	10.000000	-25.000000 	0.000707
9.500000	10.000000	0.000000	10.000000	-25.000000 	0.000707
9.550000	10.000000	0.000000	10.000000	-25.000000 	0.000707
9.600000	10.000000	0.000000	10.000000	-25.000000 	0.000707
9.650000	10.000000	0.000000	10.000000	-25.000000 	0.000707
9.700000	10.000000	0.000000	10.000000	-25.000000 	0.000707
9.750000	10.000000	0.000000	10.000000	-25.000000 	0.000707
9.800000	10.000000	0.000000	10.000000	-25.000000 	0.000707
9.850000	10.000000	0.000000	10.000000	-25.000000 	0.000707
9.900000	10.000000	0.000000	10.000000	-25.000000 	0.000707
9.950000	10.000000	0.000000	10.000000	-25.000000 	0.000707
10.000000	10.000000	0.000000	10.000000	-25.000000 	0.000707
10.050000	10.000000	0.000000	10.000000	-25.000000 	0.000707
10.100000	10.000000	0.000000	10.000000	-25.000000 	0.000707
10.150000	10.000000	0.000000	10.000000	-25.000000 	0.000707
10.200000	10.000000	0.000000	10.000000	-25.000000 	0.000707
10.250000	10.000000	0.000000	10.000000	-25.000000 	0.000707
10.300000	10.000000	0.000000	10.000000	-25.000000 	0.000707
10.350000	10.000000	0.000000	10.000000	-25.000000 	0.000707
10.400000	10.000000	0.000000	10.000000	-25.000000 	0.000707
10.450000	10.000000	0.000000	10.000000	-25.000000 	0.000707
10.500000	10.000000	0.000000	10.000000	-25.000000 	0.000707
10.550000	10.000000	0.000000	10.000000	-25.000000 	0.000707
10.600000	10.000000	0.000000	10.000000	-25.000000 	0.000707
10.650000	10.000000	0.000000	10.000000	-25.000000 	0.000707
10.700000	10.000000	0.000000	10.000000	-25.000000 	0.000707
10.750000	10.000000	0.000000	10.000000	-25.000000 	0.000707
10.800000	10.000000	0.000000	10.000000	-25.000000 	0.000707
10.850000	10.000000	0.000000	10.000000	-25.000000 	0.000707
10.900000	10.000000	0.000000	10.000000	-25.000000 	0.000707
10.950000	10.000000	0.000000	10.000000	-25.000000 	0.000707
11.000000	10.000000	0.000000	10.000000	-25.000000 	0.000707
11.050000	10.000000	0.000000	10.000000	-25.000000 	0.000707
11.100000	10.000000	0.000000	10.000000	-25.000000 	0.000707
11.150000	10.000000	0.000000	10.000000	-25.000000 	0.000707
11.200000	10.000000	0.000000	10.000000	-25.000000 	0.000707
11.250000	10.000000	0.000000	10.000000	-25.000000 	0.000707
11.300000	10.000000	0.000000	10.000000	-25.000000 	0.000707
11.350000	10.000000	0.000000	10.000000	-25.000000 	0.000707
11.400000	10.000000	0.000000	10.000000	-25.000000 	0.000707
11.450000	10.000000	0.000000	10.000000	-25.000000 	0.000707
11.500000	10.000000	0.000000	10.000000	-25.000000 	0.000707
11.550000	10.000000	0.000000	10.000000	-25.000000 	0.000707
11.600000	10.000000	0.000000	10.000000	-25.000000 	0.000707
11.650000	10.000000	0.000000	10.000000	-25.000000 	0.000707
11.700000	10.000000	0.000000	10.000000	-25.000000 	0.000707
11.750000	10.000000	0.000000	10.000000	-25.000000 	0.000707
11.800000	10.000000	0.000000	10.000000	-25.000000 	0.000707
11.850000	10.000000	0.000000	10.000000	-25.000000 	0.000707
11.900000	10.000000	0.000000	10.000000	-25.000000 	0.000707
11.950000	10.000000	0.000000	10.000000	-25.000000 	0.000707
12.000000	10.000000	0.000000	10.000000	-25.000000 	0.000707
12.050000	10.000000	0.000000	10.000000	-25.000000 	0.000707
12.100000	10.000000	0.000000	10.000000	-25.000000 	0.000707
12.150000	10.000000	0.000000	10.000000	-25.000000 	0.000707
12.200000	10.000000	0.000000	10.000000	-25.000000 	0.000707
12.250000	10.000000	0.000000	10.000000	-25.000000 	0.000707
12.300000	10.000000	0.000000	10.000000	-25.000000 	0.000707
12.350000	10.000000	0.000000	10.000000	-25.000000 	0.000707
12.400000	10.000000	0.000000	10.000000	-25.000000 	0.000707
12.450000	10.000000	0.000000	10.000000	-25.000000 	0.000707
12.500000	10.000000	0.000000	10.000000	-25.000000 	0.000707
12.550000	10.000000	0.000000	10.000000	-25.000000 	0.000707
12.600000	10.000000	0.000000	10.000000	-25.000000 	0.000707
12.650000	10.000000	0.000000	10.000000	-25.000000 	0.000707
12.700000	10.000000	0.000000	10.000000	-25.000000 	0.000707
12.750000	10.000000	0.000000	10.000000	-25.000000 	0.000707
12.800000	10.000000	0.000000	10.000000	-25.000000 	0.000707
12.850000	10.000000	0.000000	10.000000	-25.000000 	0.000707
12.900000	10.000000	0.000000	10.000000	-25.000000 	0.000707
12.950000	10.000000	0.000000	10.000000	-25.000000 	0.000707
13.000000	10.000000	0.000000	10.000000	-25.000000 	0.000707
13.050000	10.000000	0.000000	10.000000	-25.000000 	0.000707
13.100000	10.000000	0.000000	10.000000	-25.000000 	0.000707
13.150000	10.000000	0.000000	10.000000	-25.000000 	0.000707
13.200000	10.000000	0.000000	10.000000	-25.000000 	0.000707
13.250000	10.000000	0.000000	10.000000	-25.000000 	0.000707
13.300000	10.000000	0.000000	10.000000	-25.000000 	0.000707
13.350000	10.000000	0.000000	10.000000	-25.000000 	0.000707
13.400000	10.000000	0.000000	10.000000	-25.000000 	0.000707
13.450000	10.000000	0.000000	10.000000	-25.000000 	0.000707
13.500000	10.000000	0.000000	10.000000	-25.000000 	0.000707
13.550000	10.000000	0.000000	10.000000	-25.000000 	0.000707
13.600000	10.000000	0.000000	10.000000	-25.000000 	0.000707
13.650000	10.000000	0.000000	10.000000	-25.000000 	0.000707
13.700000	10.000000	0.000000	10.000000	-25.000000 	0.000707
13.750000	10.000000	0.000000	10.000000	-25.000000 	0.000707
13.800000	10.000000	0.000000	10.000000	-25.000000 	0.000707
13.850000	10.000000	0.000000	10.000000	-25.000000 	0.000707
13.900000	10.000000	0.000000	10.000000	-25.000000 	0.000707
13.950000	10.000000	0.000000	10.000000	-25.000000 	0.000707
14.000000	10.000000	0.000000	10.000000	-25.000000 	0.000707
14.050000	10.000000	0.000000	10.000000	-25.000000 	0.000707
14.100000	10.000000	0.000000	10.000000	-25.000000 	0.000707
14.150000	10.000000	0.000000	10.000000	-25.000000 	0.000707
14.200000	10.000000	0.000000	10.000000	-25.000000 	0.000707
14.250000	10.000000	0.000000	10.000000	-25.000000 	0.000707
14.300000	10.000000	0.000000	10.000000	-25.000000 	0.000707
14.350000	10.000000	0.000000	10.000000	-25.000000 	0.000707
14.400000	10.000000	0.000000	10.000000	-25.000000 	0.000707
14.450000	10.000000	0.000000	10.000000	-25.000000 	0.000707
14.500000	10.000000	0.000000	10.000000	-25.000000 	0.000707
14.550000	10.000000	0.000000	10.000000	-25.000000 	0.000707
14.600000	10.000000	0.000000	10.000000	-25.000000 	0.000707
14.650000	10.000000	0.000000	10.000000	-25.000000 	0.000707
14.700000	10.000000	0.000000	10.000000	-25.000000 	0.000707
14.750000	10.000000	0.000000	10.000000	-25.000000 	0.000707
14.800000	10.000000	0.000000	10.000000	-25.000000 	0.000707
14.850000	10.000000	0.000000	10.000000	-25.000000 	0.000707
14.900000	10.000000	0.000000	10.000000	-25.000000 	0.000707
14.950000	10.000000	0.000000	10.000000	-25.000000 	0.000707
15.000000	10.000000	0.000000	10.000000	-25.000000 	0.000707
15.050000	10.000000	0.000000	10.000000	-25.000000 	0.000707
15.100000	10.000000	0.000000	10.000000	-25.000000 	0.000707
15.150000	10.000000	0.000000	10.000000	-25.000000 	0.000707
15.200000	10.000000	0.000000	10.000000	-25.000000 	0.000707
15.250000	10.000000	0.000000	10.000000	-25.000000 	0.000707
15.300000	10.000000	0.000000	10.000000	-25.000000 	0.000707
15.350000	10.000000	0.000000	10.000000	-25.000000 	0.000707
15.400000	10.000000	0.000000	10.000000	-25.000000 	0.000707
15.450000	10.000000	0.000000	10.000000	-25.000000 	0.000707
15.500000	10.000000	0.000000	10.000000	-25.000000 	0.000707
15.550000	10.000000	0.000000	10.000000	-25.000000 	0.000707
15.600000	10.000000	0.000000	10.000000	-25.000000 	0.000707
15.650000	10.000000	0.000000	10.000000	-25.000000 	0.000707
15.700000	10.000000	0.000000	10.000000	-25.000000 	0.000707
15.750000	10.000000	0.000000	10.000000	-25.000000 	0.000707
15.800000	10.000000	0.000000	10.000000	-25.000000 	0.000707
15.850000	10.000000	0.000000	10.000000	-25.000000 	0.000707
15.900000	10.000000	0.000000	10.000000	-25.000000 	0.000707
15.950000	10.000000	0.000000	10.000000	-25.000000 	0.000707
16.000000	10.000000	0.000000	10.000000	-25.000000 	0.000707
16.050000	10.000000	0.000000	10.000000	-25.000000 	0.000707
16.100000	10.000000	0.000000	10.000000	-25.000000 	0.000707
16.150000	10.000000	0.000000	10.000000	-25.000000 	0.000707
16.200000	10.000000	0.000000	10.000000	-25.000000 	0.000707
16.250000	10.000000	0.000000	10.000000	-25.000000 	0.000707
16.300000	10.000000	0.000000	10.000000	-25.000000 	0.000707
16.350000	10.000000	0.000000	10.000000	-25.000000 	0.000707
16.400000	10.000000	0.000000	10.000000	-25.000000 	0.000707
16.450000	10.000000	0.000000	10.000000	-25.000000 	0.000707
16.500000	10.000000	0.000000	10.000000	-25.000000 	0.000707
16.550000	10.000000	0.000000	10.000000	-25.000000 	0.000707
16.600000	10.000000	0.000000	10.000000	-25.000000 	0.000707
16.650000	10.000000	0.000000	10.000000	-25.000000 	0.000707
16.700000	10.000000	0.000000	10.000000	-25.000000 	0.000707
16.750000	10.000000	0.000000	10.000000	-25.000000 	0.000707
16.800000	10.000000	0.000000	10.000000	-25.000000 	0.000707
16.850000	10.000000	0.000000	10.000000	-25.000000 	0.000707
16.900000	10.000000	0.000000	10.000000	-25.000000 	0.000707
16.950000	10.000000	0.000000	10.000000	-25.000000 	0.000707
17.000000	10.000000	0.000000	10.000000	-25.000000 	0.000707
17.050000	10.000000	0.000000	10.000000	-25.000000 	0.000707
17.100000	10.000000	0.000000	10.000000	-25.000000 	0.000707
17.150000	10.000000	0.000000	10.000000	-25.000000 	0.000707
17.200000	10.000000	0.000000	10.000000	-25.000000 	0.000707
17.250000	10.000000	0.000000	10.000000	-25.000000 	0.000707
17.300000	10.000000	0.000000	10.000000	-25.000000 	0.000707
17.350000	10.000000	0.000000	10.000000	-25.000000 	0.000707
17.400000	10.000000	0.000000	10.000000	-25.000000 	0.000707
17.450000	10.000000	0.000000	10.000000	-25.000000 	0.000707
17.500000	10.000000	0.000000	10.000000	-25.000000 	0.000707
17.550000	10.000000	0.000000	10.000000	-25.000000 	0.000707
17.600000	10.000000	0.000000	10.000000	-25.000000 	0.000707
17.650000	10.000000	0.000000	10.000000	-25.000000 	0.000707
17.700000	10.000000	0.000000	10.000000	-25.000000 	0.000707
17.750000	10.000000	0.000000	10.000000	-25.000000 	0.000707
17.800000	10.000000	0.000000	10.000000	-25.000000 	0.000707
17.850000	10.000000	0.000000	10.000000	-25.000000 	0.000707
17.900000	10.000000	0.000000	10.000000	-25.000000 	0.000707
17.950000	10.000000	0.000000	10.000000	-25.000000 	0.000707
18.000000	10.000000	0.000000	10.000000	-25.000000 	0.000707
18.050000	10.000000	0.000000	10.000000	-25.000000 	0.000707
18.100000	10.000000	0.000000	10.000000	-25.000000 	0.000707
18.150000	10.000000	0.000000	10.000000	-25.000000 	0.000707
18.200000	10.000000	0.000000	10.000000	-25.000000 	0.000707
18.250000	10.000000	0.000000	10.000000	-25.000000 	0.000707
18.300000	10.000000	0.000000	10.000000	-25.000000 	0.000707
18.350000	10.000000	0.000000	10.000000	-25.000000 	0.000707
18.400000	10.000000	0.000000	10.000000	-25.000000 	0.000707
18.450000	10.000000	0.000000	10.000000	-25.000000 	0.000707
18.500000	10.000000	0.000000	10.000000	-25.000000 	0.000707
18.550000	10.000000	0.000000	10.000000	-25.000000 	0.000707
18.600000	10.000000	0.000000	10.000000	-25.000000 	0.000707
18.650000	10.000000	0.000000	10.000000	-25.000000 	0.000707
18.700000	10.000000	0.000000	10.000000	-25.000000 	0.000707
18.750000	10.000000	0.000000	10.000000	-25.000000 	0.000707
18.800000	10.000000	0.000000	10.000000	-25.000000 	0.000707
18.850000	10.000000	0.000000	10.000000	-25.000000 	0.000707
18.900000	10.000000	0.000000	10.000000	-25.000000 	0.000707
18.950000	10.000000	0.000000	10.000000	-25.000000 	0.000707
19.000000	10.000000	0.000000	10.000000	-25.000000 	0.000707
19.050000	10.000000	0.000000	10.000000	-25.000000 	0.000707
19.100000	10.000000	0.000000	10.000000	-25.000000 	0.000707
19.150000	10.000000	0.000000	10.000000	-25.000000 	0.000707
19.200000	10.000000	0.000000	10.000000	-25.000000 	0.000707
19.250000	10.000000	0.000000	10.000000	-25.000000 	0.000707
19.300000	10.000000	0.000000	10.000000	-25.000000 	0.000707
19.350000	10.000000	0.000000	10.000000	-25.000000 	0.000707
19.400000	10.000000	0.000000	10.000000	-25.000000 	0.000707
19.450000	10.000000	0.000000	10.000000	-25.000000 	0.000707
19.500000	10.000000	0.000000	10.000000	-25.000000 	0.000707
19.550000	10.000000	0.000000	10.000000	-25.000000 	0.000707
19.600000	10.000000	0.000000	10.000000	-25.000000 	0.000707
19.650000	10.000000	0.000000	10.000000	-25.000000 	0.000707
19.700000	10.000000	0.000000	10.000000	-25.000000 	0.000707
19.750000	10.000000	0.000000	10.000000	-25.000000 	0.000707
19.800000	10.000000	0.000000	10.000000	-25.000000 	0.000707
19.850000	10.000000	0.000000	10.000000	-25.000000 	0.000707
19.900000	10.000000	0.000000	10.000000	-25.000000 	0.000707
19.950000	10.000000	0.000000	10.000000	-25.000000 	0.000707
20.000000	10.000000	0.000000	10.000000	-25.000000 	0.000707
20.050000	10.000000	0.000000	10.000000	-25.000000 	0.000707
20.100000	10.000000	0.000000	10.000000	-25.000000 	0.000707
20.150000	10.000000	0.000000	10.000000	-25.000000 	0.000707
20.200000	10.000000	0.000000	10.000000	-25.000000 	0.000707
20.250000	10.000000	0.000000	10.000000	-25.000000 	0.000707
20.300000	10.000000	0.000000	10.000000	-25.000000 	0.000707
20.350000	10.000000	0.000000	10.000000	-25.000000 	0.000707
20.400000	10.000000	0.000000	10.000000	-25.000000 	0.000707
20.450000	10.000000	0.000000	10.000000	-25.000000 	0.000707
20.500000	10.000000	0.000000	10.000000	-25.000000 	0.000707
20.550000	10.000000	0.000000	10.000000	-25.000000 	0.000707
20.600000	10.000000	0.000000	10.000000	-25.000000 	0.000707
20.650000	10.000000	0.000000	10.000000	-25.000000 	0.000707
20.700000	10.000000	0.000000	10.000000	-25.000000 	0.000707
20.750000	10.000000	0.000000	10.000000	-25.000000 	0.000707
20.800000	10.000000	0.000000	10.000000	-25.000000 	0.000707
20.850000	10.000000	0.000000	10.000000	-25.000000 	0.000707
20.900000	10.000000	0.000000	10.000000	-25.000000 	0.000707
20.950000	10.000000	0.000000	10.000000	-25.000000 	0.000707
21.000000	10.000000	0.000000	10.000000	-25.000000 	0.000707
21.050000	10.000000	0.000000	10.000000	-25.000000 	0.000707
21.100000	10.000000	0.000000	10.000000	-25.000000 	0.000707
21.150000	10.000000	0.000000	10.000000	-25.000000 	0.000707
21.200000	10.000000	0.000000	10.000000	-25.000000 	0.000707
21.250000	10.000000	0.000000	10.000000	-25.000000 	0.000707
21.300000	10.000000	0.000000	10.000000	-25.000000 	0.000707
21.350000	10.000000	0.000000	10.000000	-25.000000 	0.000707
21.400000	10.000000	0.000000	10.000000	-25.000000 	0.000707
21.450000	10.000000	0.000000	10.000000	-25.000000 	0.000707
21.500000	10.000000	0.000000	10.000000	-25.000000 	0.000707
21.550000	10.000000	0.000000	10.000000	-25.000000 	0.000707
21.600000	10.000000	0.000000	10.000000	-25.000000 	0.000707
21.650000	10.000000	0.000000	10.000000	-25.000000 	0.000707
21.700000	10.000000	0.000000	10.000000	-25.000000 	0.000707
21.750000	10.000000	0.000000	10.000000	-25.000000 	0.000707
21.800000	10.000000	0.000000	10.000000	-25.000000 	0.000707
21.850000	10.000000	0.000000	10.000000	-25.000000 	0.000707
21.900000	10.000000	0.000000	10.000000	-25.000000 	0.000707
21.950000	10.000000	0.000000	10.000000	-25.000000 	0.000707
22.000000	10.000000	0.000000	10.000000	-25.000000 	0.000707
22.050000	10.000000	0.000000	10.000000	-25.000000 	0.000707
22.100000	10.000000	0.000000	10.000000	-25.000000 	0.000707
22.150000	10.000000	0.000000	10.000000	-25.000000 	0.000707
22.200000	10.000000	0.000000	10.000000	-25.000000 	0.000707
22.250000	10.000000	0.000000	10.000000	-25.000000 	0.000707
22.300000	10.000000	0.000000	10.000000	-25.000000 	0.000707
22.350000	10.000000	0.000000	10.000000	-25.000000 	0.000707
22.400000	10.000000	0.000000	10.000000	-25.000000 	0.000707
22.450000	10.000000	0.000000	10.000000	-25.000000 	0.000707
22.500000	10.000000	0.000000	10.000000	-25.000000 	0.000707
22.550000	10.000000	0.000000	10.000000	-25.000000 	0.000707
22.600000	10.000000	0.000000	10.000000	-25.000000 	0.000707
22.650000	10.000000	0.000000	10.000000	-25.000000 	0.000707
22.700000	10.000000	0.000000	10.000000	-25.000000 	0.000707
22.750000	10.000000	0.000000	10.000000	-25.000000 	0.000707
22.800000	10.000000	0.000000	10.000000	-25.000000 	0.000707
22.850000	10.000000	0.000000	10.000000	-25.000000 	0.000707
22.900000	10.000000	0.000000	10.000000	-25.000000 	0.000707
22.950000	10.000000	0.000000	10.000000	-25.000000 	0.000707
23.000000	10.000000	0.000000	10.000000	-25.000000 	0.000707
23.050000	10.000000	0.000000	10.000000	-25.000000 	0.000707
23.100000	10.000000	0.000000	10.000000	-25.000000 	0.000707
23.150000	10.000000	0.000000	10.000000	-25.000000 	0.000707
23.200000	10.000000	0.000000	10.000000	-25.000000 	0.000707
23.250000	10.000000	0.000000	10.000000	-25.000000 	0.000707
23.300000	10.000000	0.000000	10.000000	-25.000000 	0.000707
23.350000	10.000000	0.000000	10.000000	-25.000000 	0.000707
23.400000	10.000000	0.000000	10.000000	-25.000000 	0.000707
23.450000	10.000000	0.000000	10.000000	-25.000000 	0.000707
23.500000	10.000000	0.000000	10.000000	-25.000000 	0.000707
23.550000	10.000000	0.000000	10.000000	-25.000000 	0.000707
23.600000	10.000000	0.000000	10.000000	-25.000000 	0.000707
23.650000	10.000000	0.000000	10.000000	-25.000000 	0.000707
23.700000	10.000000	0.000000	10.000000	-25.000000 	0.000707
23.750000	10.000000	0.000000	10.000000	-25.000000 	0.000707
23.800000	10.000000	0.000000	10.000000	-25.000000 	0.000707
23.850000	10.000000	0.000000	10.000000	-25.000000 	0.000707
23.900000	10.000000	0.000000	10.000000	-25.000000 	0.000707
23.950000	10.000000	0.000000	10.000000	-25.000000 	0.000707
24.000000	10.000000	0.000000	10.000000	-25.000000 	0.000707
24.050000	10.000000	0.000000	10.000000	-25.000000 	0.000707
24.100000	10.000000	0.000000	10.000000	-25.000000 	0.000707
24.150000	10.000000	0.000000	10.000000	-25.000000 	0.000707
24.200000	10.000000	0.000000	10.000000	-25.000000 	0.000707
24.250000	10.000000	0.000000	10.000000	-25.000000 	0.000707
24.300000	10.000000	0.000000	10.000000	-25.000000 	0.000707
24.350000	10.000000	0.000000	10.000000	-25.000000 	0.000707
24.400000	10.000000	0.000000	10.000000	-25.000000 	0.000707
24.450000	10.000000	0.000000	10.000000	-25.000000 	0.000707
24.500000	10.000000	0.000000	10.000000	-25.000000 	0.000707
24.550000	10.000000	0.000000	10.000000	-25.000000 	0.000707
24.600000	10.000000	0.000000	10.000000	-25.000000 	0.000707
24.650000	10.000000	0.000000	10.000000	-25.000000 	0.000707
24.700000	10.000000	0.000000	10.000000	-25.000000 	0.000707
24.750000	10.000000	0.000000	10.000000	-25.000000 	0.000707
24.800000	10.000000	0.000000	10.000000	-25.000000 	0.000707
24.850000	10.000000	0.000000	10.000000	-25.000000 	0.000707
24.900000	10.000000	0.000000	10.000000	-25.000000 	0.000707
24.950000	10.000000	0.000000	10.000000	-25.000000 	0.000707
25.000000	10.000000	0.000000	10.000000	-25.000000 	0.000707
25.050000	10.000000	0.000000	10.000000	-25.000000 	0.000707