VARIABLES = X,Ksi,B,H,U,tau 
ZONE T="Time 1.500000", I=1000, DATAPACKING=POINT
0.000000	1.000000	0.000000	1.000000	0.000000 	0.003194
0.050000	1.000000	0.000000	1.000000	0.000000 	0.003194
0.100000	1.000000	0.000000	1.000000	0.000000 	0.003194
0.150000	1.000000	0.000000	1.000000	0.000000 	0.003194
0.200000	1.000000	0.000000	1.000000	0.000000 	0.003194
0.250000	1.000000	0.000000	1.000000	0.000000 	0.003194
0.300000	1.000000	0.000000	1.000000	0.000000 	0.003194
0.350000	1.000000	0.000000	1.000000	0.000000 	0.003194
0.400000	1.000000	0.000000	1.000000	0.000000 	0.003194
0.450000	1.000000	0.000000	1.000000	0.000000 	0.003194
0.500000	1.000000	0.000000	1.000000	0.000000 	0.003194
0.550000	1.000000	0.000000	1.000000	0.000000 	0.003194
0.600000	1.000000	0.000000	1.000000	0.000000 	0.003194
0.650000	1.000000	0.000000	1.000000	0.000000 	0.003194
0.700000	1.000000	0.000000	1.000000	0.000000 	0.003194
0.750000	1.000000	0.000000	1.000000	0.000000 	0.003194
0.800000	1.000000	0.000000	1.000000	0.000000 	0.003194
0.850000	1.000000	0.000000	1.000000	0.000000 	0.003194
0.900000	1.000000	0.000000	1.000000	0.000000 	0.003194
0.950000	1.000000	0.000000	1.000000	0.000000 	0.003194
1.000000	1.000000	0.000000	1.000000	0.000000 	0.003194
1.050000	1.000000	0.000000	1.000000	0.000000 	0.003194
1.100000	1.000000	0.000000	1.000000	0.000000 	0.003194
1.150000	1.000000	0.000000	1.000000	0.000000 	0.003194
1.200000	1.000000	0.000000	1.000000	0.000000 	0.003194
1.250000	1.000000	0.000000	1.000000	0.000000 	0.003194
1.300000	1.000000	0.000000	1.000000	0.000000 	0.003194
1.350000	1.000000	0.000000	1.000000	0.000000 	0.003194
1.400000	1.000000	0.000000	1.000000	0.000000 	0.003194
1.450000	1.000000	0.000000	1.000000	0.000000 	0.003194
1.500000	1.000000	0.000000	1.000000	0.000000 	0.003194
1.550000	1.000000	0.000000	1.000000	0.000000 	0.003194
1.600000	1.000000	0.000000	1.000000	0.000000 	0.003194
1.650000	1.000000	0.000000	1.000000	0.000000 	0.003194
1.700000	1.000000	0.000000	1.000000	0.000000 	0.003194
1.750000	1.000000	0.000000	1.000000	0.000000 	0.003194
1.800000	1.000000	0.000000	1.000000	0.000000 	0.003194
1.850000	1.000000	0.000000	1.000000	0.000000 	0.003194
1.900000	1.000000	0.000000	1.000000	0.000000 	0.003194
1.950000	1.000000	0.000000	1.000000	0.000000 	0.003194
2.000000	1.000000	0.000000	1.000000	0.000000 	0.003194
2.050000	1.000000	0.000000	1.000000	0.000000 	0.003194
2.100000	1.000000	0.000000	1.000000	0.000000 	0.003194
2.150000	1.000000	0.000000	1.000000	0.000000 	0.003194
2.200000	1.000000	0.000000	1.000000	0.000000 	0.003194
2.250000	1.000000	0.000000	1.000000	0.000000 	0.003194
2.300000	1.000000	0.000000	1.000000	0.000000 	0.003194
2.350000	1.000000	0.000000	1.000000	0.000000 	0.003194
2.400000	1.000000	0.000000	1.000000	0.000000 	0.003194
2.450000	1.000000	0.000000	1.000000	0.000000 	0.003194
2.500000	1.000000	0.000000	1.000000	0.000000 	0.003194
2.550000	1.000000	0.000000	1.000000	0.000000 	0.003194
2.600000	1.000000	0.000000	1.000000	0.000000 	0.003194
2.650000	1.000000	0.000000	1.000000	0.000000 	0.003194
2.700000	1.000000	0.000000	1.000000	0.000000 	0.003194
2.750000	1.000000	0.000000	1.000000	0.000000 	0.003194
2.800000	1.000000	0.000000	1.000000	0.000000 	0.003194
2.850000	1.000000	0.000000	1.000000	0.000000 	0.003194
2.900000	1.000000	0.000000	1.000000	0.000000 	0.003194
2.950000	1.000000	0.000000	1.000000	0.000000 	0.003194
3.000000	1.000000	0.000000	1.000000	0.000000 	0.003194
3.050000	1.000000	0.000000	1.000000	0.000000 	0.003194
3.100000	1.000000	0.000000	1.000000	0.000000 	0.003194
3.150000	1.000000	0.000000	1.000000	0.000000 	0.003194
3.200000	1.000000	0.000000	1.000000	0.000000 	0.003194
3.250000	1.000000	0.000000	1.000000	0.000000 	0.003194
3.300000	1.000000	0.000000	1.000000	0.000000 	0.003194
3.350000	1.000000	0.000000	1.000000	0.000000 	0.003194
3.400000	1.000000	0.000000	1.000000	0.000000 	0.003194
3.450000	1.000000	0.000000	1.000000	0.000000 	0.003194
3.500000	1.000000	0.000000	1.000000	0.000000 	0.003194
3.550000	1.000000	0.000000	1.000000	0.000000 	0.003194
3.600000	1.000000	0.000000	1.000000	0.000000 	0.003194
3.650000	1.000000	0.000000	1.000000	0.000000 	0.003194
3.700000	1.000000	0.000000	1.000000	0.000000 	0.003194
3.750000	1.000000	0.000000	1.000000	0.000000 	0.003194
3.800000	1.000000	0.000000	1.000000	0.000000 	0.003194
3.850000	1.000000	0.000000	1.000000	0.000000 	0.003194
3.900000	1.000000	0.000000	1.000000	0.000000 	0.003194
3.950000	1.000000	0.000000	1.000000	0.000000 	0.003194
4.000000	1.000000	0.000000	1.000000	0.000000 	0.003194
4.050000	1.000000	0.000000	1.000000	0.000000 	0.003194
4.100000	1.000000	0.000000	1.000000	0.000000 	0.003194
4.150000	1.000000	0.000000	1.000000	0.000000 	0.003194
4.200000	1.000000	0.000000	1.000000	0.000000 	0.003194
4.250000	1.000000	0.000000	1.000000	0.000000 	0.003194
4.300000	1.000000	0.000000	1.000000	0.000000 	0.003194
4.350000	1.000000	0.000000	1.000000	0.000000 	0.003194
4.400000	1.000000	0.000000	1.000000	0.000000 	0.003194
4.450000	1.000000	0.000000	1.000000	0.000000 	0.003194
4.500000	1.000000	0.000000	1.000000	0.000000 	0.003194
4.550000	1.000000	0.000000	1.000000	0.000000 	0.003194
4.600000	1.000000	0.000000	1.000000	0.000000 	0.003194
4.650000	1.000000	0.000000	1.000000	0.000000 	0.003194
4.700000	1.000000	0.000000	1.000000	0.000000 	0.003194
4.750000	1.000000	0.000000	1.000000	0.000000 	0.003194
4.800000	1.000000	0.000000	1.000000	0.000000 	0.003194
4.850000	1.000000	0.000000	1.000000	0.000000 	0.003194
4.900000	1.000000	0.000000	1.000000	0.000000 	0.003194
4.950000	1.000000	0.000000	1.000000	0.000000 	0.003194
5.000000	1.000000	0.000000	1.000000	0.000000 	0.003194
5.050000	1.000000	0.000000	1.000000	0.000000 	0.003194
5.100000	1.000000	0.000000	1.000000	0.000000 	0.003194
5.150000	1.000000	0.000000	1.000000	0.000000 	0.003194
5.200000	1.000000	0.000000	1.000000	0.000000 	0.003194
5.250000	1.000000	0.000000	1.000000	0.000000 	0.003194
5.300000	1.000000	0.000000	1.000000	0.000000 	0.003194
5.350000	1.000000	0.000000	1.000000	0.000000 	0.003194
5.400000	1.000000	0.000000	1.000000	0.000000 	0.003194
5.450000	1.000000	0.000000	1.000000	0.000000 	0.003194
5.500000	1.000000	0.000000	1.000000	0.000000 	0.003194
5.550000	1.000000	0.000000	1.000000	0.000000 	0.003194
5.600000	1.000000	0.000000	1.000000	0.000000 	0.003194
5.650000	1.000000	0.000000	1.000000	0.000000 	0.003194
5.700000	1.000000	0.000000	1.000000	0.000000 	0.003194
5.750000	1.000000	0.000000	1.000000	0.000000 	0.003194
5.800000	1.000000	0.000000	1.000000	0.000000 	0.003194
5.850000	1.000000	0.000000	1.000000	0.000000 	0.003194
5.900000	1.000000	0.000000	1.000000	0.000000 	0.003194
5.950000	1.000000	0.000000	1.000000	0.000000 	0.003194
6.000000	1.000000	0.000000	1.000000	0.000000 	0.003194
6.050000	1.000000	0.000000	1.000000	0.000000 	0.003194
6.100000	1.000000	0.000000	1.000000	0.000000 	0.003194
6.150000	1.000000	0.000000	1.000000	0.000000 	0.003194
6.200000	1.000000	0.000000	1.000000	0.000000 	0.003194
6.250000	1.000000	0.000000	1.000000	0.000000 	0.003194
6.300000	1.000000	0.000000	1.000000	0.000000 	0.003194
6.350000	1.000000	0.000000	1.000000	0.000000 	0.003194
6.400000	1.000000	0.000000	1.000000	0.000000 	0.003194
6.450000	1.000000	0.000000	1.000000	0.000000 	0.003194
6.500000	1.000000	0.000000	1.000000	0.000000 	0.003194
6.550000	1.000000	0.000000	1.000000	0.000000 	0.003194
6.600000	1.000000	0.000000	1.000000	0.000000 	0.003194
6.650000	1.000000	0.000000	1.000000	0.000000 	0.003194
6.700000	1.000000	0.000000	1.000000	0.000000 	0.003194
6.750000	1.000000	0.000000	1.000000	0.000000 	0.003194
6.800000	1.000000	0.000000	1.000000	0.000000 	0.003194
6.850000	1.000000	0.000000	1.000000	0.000000 	0.003194
6.900000	1.000000	0.000000	1.000000	0.000000 	0.003194
6.950000	1.000000	0.000000	1.000000	0.000000 	0.003194
7.000000	1.000000	0.000000	1.000000	0.000000 	0.003194
7.050000	1.000000	0.000000	1.000000	0.000000 	0.003194
7.100000	1.000000	0.000000	1.000000	0.000000 	0.003194
7.150000	1.000000	0.000000	1.000000	0.000000 	0.003194
7.200000	1.000000	0.000000	1.000000	0.000000 	0.003194
7.250000	1.000000	0.000000	1.000000	0.000000 	0.003194
7.300000	1.000000	0.000000	1.000000	0.000000 	0.003194
7.350000	1.000000	0.000000	1.000000	0.000000 	0.003194
7.400000	1.000000	0.000000	1.000000	0.000000 	0.003194
7.450000	1.000000	0.000000	1.000000	0.000000 	0.003194
7.500000	1.000000	0.000000	1.000000	0.000000 	0.003194
7.550000	1.000000	0.000000	1.000000	0.000000 	0.003194
7.600000	1.000000	0.000000	1.000000	0.000000 	0.003194
7.650000	1.000000	0.000000	1.000000	0.000000 	0.003194
7.700000	1.000000	0.000000	1.000000	0.000000 	0.003194
7.750000	1.000000	0.000000	1.000000	0.000000 	0.003194
7.800000	1.000000	0.000000	1.000000	0.000000 	0.003194
7.850000	1.000000	0.000000	1.000000	0.000000 	0.003194
7.900000	1.000000	0.000000	1.000000	0.000000 	0.003194
7.950000	1.000000	0.000000	1.000000	0.000000 	0.003194
8.000000	1.000000	0.000000	1.000000	0.000000 	0.003194
8.050000	1.000000	0.000000	1.000000	0.000000 	0.003194
8.100000	1.000000	0.000000	1.000000	0.000000 	0.003194
8.150000	1.000000	0.000000	1.000000	0.000000 	0.003194
8.200000	1.000000	0.000000	1.000000	0.000000 	0.003194
8.250000	1.000000	0.000000	1.000000	0.000000 	0.003194
8.300000	1.000000	0.000000	1.000000	0.000000 	0.003194
8.350000	1.000000	0.000000	1.000000	0.000000 	0.003194
8.400000	1.000000	0.000000	1.000000	0.000000 	0.003194
8.450000	1.000000	0.000000	1.000000	0.000000 	0.003194
8.500000	1.000000	0.000000	1.000000	0.000000 	0.003194
8.550000	1.000000	0.000000	1.000000	0.000000 	0.003194
8.600000	1.000000	0.000000	1.000000	0.000000 	0.003194
8.650000	1.000000	0.000000	1.000000	0.000000 	0.003194
8.700000	1.000000	0.000000	1.000000	0.000000 	0.003194
8.750000	1.000000	0.000000	1.000000	0.000000 	0.003194
8.800000	1.000000	0.000000	1.000000	0.000000 	0.003194
8.850000	1.000000	0.000000	1.000000	0.000000 	0.003194
8.900000	1.000000	0.000000	1.000000	0.000000 	0.003194
8.950000	1.000000	0.000000	1.000000	0.000000 	0.003194
9.000000	1.000000	0.000000	1.000000	0.000000 	0.003194
9.050000	1.000000	0.000000	1.000000	0.000000 	0.003194
9.100000	1.000000	0.000000	1.000000	0.000000 	0.003194
9.150000	1.000000	0.000000	1.000000	0.000000 	0.003194
9.200000	1.000000	0.000000	1.000000	0.000000 	0.003194
9.250000	1.000000	0.000000	1.000000	0.000000 	0.003194
9.300000	1.000000	0.000000	1.000000	0.000000 	0.003194
9.350000	1.000000	0.000000	1.000000	0.000000 	0.003194
9.400000	1.000000	0.000000	1.000000	0.000000 	0.003194
9.450000	1.000000	0.000000	1.000000	0.000000 	0.003194
9.500000	1.000000	0.000000	1.000000	0.000000 	0.003194
9.550000	1.000000	0.000000	1.000000	0.000000 	0.003194
9.600000	1.000000	0.000000	1.000000	0.000000 	0.003194
9.650000	1.000000	0.000000	1.000000	0.000000 	0.003194
9.700000	1.000000	0.000000	1.000000	0.000000 	0.003194
9.750000	1.000000	0.000000	1.000000	0.000000 	0.003194
9.800000	1.000000	0.000000	1.000000	0.000000 	0.003194
9.850000	1.000000	0.000000	1.000000	0.000000 	0.003194
9.900000	1.000000	0.000000	1.000000	0.000000 	0.003194
9.950000	1.000000	0.000000	1.000000	0.000000 	0.003194
10.000000	1.000000	0.000000	1.000000	0.000000 	0.003194
10.050000	1.000000	0.000000	1.000000	0.000000 	0.003194
10.100000	1.000000	0.000000	1.000000	0.000000 	0.003194
10.150000	1.000000	0.000000	1.000000	0.000000 	0.003194
10.200000	1.000000	0.000000	1.000000	0.000000 	0.003194
10.250000	1.000000	0.000000	1.000000	0.000000 	0.003194
10.300000	1.000000	0.000000	1.000000	0.000000 	0.003194
10.350000	1.000000	0.000000	1.000000	0.000000 	0.003194
10.400000	1.000000	0.000000	1.000000	0.000000 	0.003194
10.450000	1.000000	0.000000	1.000000	0.000000 	0.003194
10.500000	1.000000	0.000000	1.000000	0.000000 	0.003194
10.550000	1.000000	0.000000	1.000000	0.000000 	0.003194
10.600000	1.000000	0.000000	1.000000	0.000000 	0.003194
10.650000	1.000000	0.000000	1.000000	0.000000 	0.003194
10.700000	1.000000	0.000000	1.000000	0.000000 	0.003194
10.750000	1.000000	0.000000	1.000000	0.000000 	0.003194
10.800000	1.000000	0.000000	1.000000	0.000000 	0.003194
10.850000	1.000000	0.000000	1.000000	0.000000 	0.003194
10.900000	1.000000	0.000000	1.000000	0.000000 	0.003194
10.950000	1.000000	0.000000	1.000000	0.000000 	0.003194
11.000000	1.000000	0.000000	1.000000	0.000000 	0.003194
11.050000	1.000000	0.000000	1.000000	0.000000 	0.003194
11.100000	1.000000	0.000000	1.000000	0.000000 	0.003194
11.150000	1.000000	0.000000	1.000000	0.000000 	0.003194
11.200000	1.000000	0.000000	1.000000	0.000000 	0.003194
11.250000	1.000000	0.000000	1.000000	0.000000 	0.003194
11.300000	1.000000	0.000000	1.000000	0.000000 	0.003194
11.350000	1.000000	0.000000	1.000000	0.000000 	0.003194
11.400000	1.000000	0.000000	1.000000	0.000000 	0.003194
11.450000	1.000000	0.000000	1.000000	0.000000 	0.003194
11.500000	1.000000	0.000000	1.000000	0.000000 	0.003194
11.550000	1.000000	0.000000	1.000000	0.000000 	0.003194
11.600000	1.000000	0.000000	1.000000	0.000000 	0.003194
11.650000	1.000000	0.000000	1.000000	0.000000 	0.003194
11.700000	1.000000	0.000000	1.000000	0.000000 	0.003194
11.750000	1.000000	0.000000	1.000000	0.000000 	0.003194
11.800000	1.000000	0.000000	1.000000	0.000000 	0.003194
11.850000	1.000000	0.000000	1.000000	0.000000 	0.003194
11.900000	1.000000	0.000000	1.000000	0.000000 	0.003194
11.950000	1.000000	0.000000	1.000000	0.000000 	0.003194
12.000000	1.000000	0.000000	1.000000	0.000000 	0.003194
12.050000	1.000000	0.000000	1.000000	0.000000 	0.003194
12.100000	1.000000	0.000000	1.000000	0.000000 	0.003194
12.150000	1.000000	0.000000	1.000000	0.000000 	0.003194
12.200000	1.000000	0.000000	1.000000	0.000000 	0.003194
12.250000	1.000000	0.000000	1.000000	0.000000 	0.003194
12.300000	1.000000	0.000000	1.000000	0.000000 	0.003194
12.350000	1.000000	0.000000	1.000000	0.000000 	0.003194
12.400000	1.000000	0.000000	1.000000	0.000000 	0.003194
12.450000	1.000000	0.000000	1.000000	0.000000 	0.003194
12.500000	1.000000	0.000000	1.000000	0.000000 	0.003194
12.550000	1.000000	0.000000	1.000000	0.000000 	0.003194
12.600000	1.000000	0.000000	1.000000	0.000000 	0.003194
12.650000	1.000000	0.000000	1.000000	0.000000 	0.003194
12.700000	1.000000	0.000000	1.000000	0.000000 	0.003194
12.750000	1.000000	0.000000	1.000000	0.000000 	0.003194
12.800000	1.000000	0.000000	1.000000	0.000000 	0.003194
12.850000	1.000000	0.000000	1.000000	0.000000 	0.003194
12.900000	1.000000	0.000000	1.000000	0.000000 	0.003194
12.950000	1.000000	0.000000	1.000000	0.000000 	0.003194
13.000000	1.000000	0.000000	1.000000	0.000000 	0.003194
13.050000	1.000000	0.000000	1.000000	0.000000 	0.003194
13.100000	1.000000	0.000000	1.000000	0.000000 	0.003194
13.150000	1.000000	0.000000	1.000000	0.000000 	0.003194
13.200000	1.000000	0.000000	1.000000	0.000000 	0.003194
13.250000	1.000000	0.000000	1.000000	0.000000 	0.003194
13.300000	1.000000	0.000000	1.000000	0.000000 	0.003194
13.350000	1.000000	0.000000	1.000000	0.000000 	0.003194
13.400000	1.000000	0.000000	1.000000	0.000000 	0.003194
13.450000	1.000000	0.000000	1.000000	0.000000 	0.003194
13.500000	1.000000	0.000000	1.000000	0.000000 	0.003194
13.550000	1.000000	0.000000	1.000000	0.000000 	0.003194
13.600000	1.000000	0.000000	1.000000	0.000000 	0.003194
13.650000	1.000000	0.000000	1.000000	0.000000 	0.003194
13.700000	1.000000	0.000000	1.000000	0.000000 	0.003194
13.750000	1.000000	0.000000	1.000000	0.000000 	0.003194
13.800000	1.000000	0.000000	1.000000	0.000000 	0.003194
13.850000	1.000000	0.000000	1.000000	0.000000 	0.003194
13.900000	1.000000	0.000000	1.000000	0.000000 	0.003194
13.950000	1.000000	0.000000	1.000000	0.000000 	0.003194
14.000000	1.000000	0.000000	1.000000	0.000000 	0.003194
14.050000	1.000000	0.000000	1.000000	0.000000 	0.003194
14.100000	1.000000	0.000000	1.000000	0.000000 	0.003194
14.150000	1.000000	0.000000	1.000000	0.000000 	0.003194
14.200000	1.000000	0.000000	1.000000	0.000000 	0.003194
14.250000	1.000000	0.000000	1.000000	0.000000 	0.003194
14.300000	1.000000	0.000000	1.000000	0.000000 	0.003194
14.350000	1.000000	0.000000	1.000000	0.000000 	0.003194
14.400000	1.000000	0.000000	1.000000	0.000000 	0.003194
14.450000	1.000000	0.000000	1.000000	0.000000 	0.003194
14.500000	1.000000	0.000000	1.000000	0.000000 	0.003194
14.550000	1.000000	0.000000	1.000000	0.000000 	0.003194
14.600000	1.000000	0.000000	1.000000	0.000000 	0.003194
14.650000	1.000000	0.000000	1.000000	0.000000 	0.003194
14.700000	1.000000	0.000000	1.000000	0.000000 	0.003194
14.750000	1.000000	0.000000	1.000000	0.000000 	0.003194
14.800000	1.000000	0.000000	1.000000	0.000000 	0.003194
14.850000	1.000000	0.000000	1.000000	0.000000 	0.003194
14.900000	1.000000	0.000000	1.000000	0.000000 	0.003194
14.950000	1.000000	0.000000	1.000000	0.000000 	0.003194
15.000000	1.000000	0.000000	1.000000	0.000000 	0.003194
15.050000	1.000000	0.000000	1.000000	0.000000 	0.003194
15.100000	1.000000	0.000000	1.000000	0.000000 	0.003194
15.150000	1.000000	0.000000	1.000000	0.000000 	0.003194
15.200000	1.000000	0.000000	1.000000	0.000000 	0.003194
15.250000	1.000000	0.000000	1.000000	0.000000 	0.003194
15.300000	1.000000	0.000000	1.000000	0.000000 	0.003194
15.350000	1.000000	0.000000	1.000000	0.000000 	0.003194
15.400000	1.000000	0.000000	1.000000	0.000000 	0.003194
15.450000	1.000000	0.000000	1.000000	0.000000 	0.003194
15.500000	1.000000	0.000000	1.000000	0.000000 	0.003194
15.550000	1.000000	0.000000	1.000000	0.000000 	0.003194
15.600000	1.000000	0.000000	1.000000	0.000000 	0.003194
15.650000	1.000000	0.000000	1.000000	0.000000 	0.003194
15.700000	1.000000	0.000000	1.000000	0.000000 	0.003194
15.750000	1.000000	0.000000	1.000000	0.000000 	0.003194
15.800000	1.000000	0.000000	1.000000	0.000000 	0.003194
15.850000	1.000000	0.000000	1.000000	0.000000 	0.003194
15.900000	1.000000	0.000000	1.000000	0.000000 	0.003194
15.950000	1.000000	0.000000	1.000000	0.000000 	0.003194
16.000000	1.000000	0.000000	1.000000	0.000000 	0.003194
16.050000	1.000000	0.000000	1.000000	0.000000 	0.003194
16.100000	1.000000	0.000000	1.000000	0.000000 	0.003194
16.150000	1.000000	0.000000	1.000000	0.000000 	0.003194
16.200000	1.000000	0.000000	1.000000	0.000000 	0.003194
16.250000	1.000000	0.000000	1.000000	0.000000 	0.003194
16.300000	1.000000	0.000000	1.000000	0.000000 	0.003194
16.350000	1.000000	0.000000	1.000000	0.000000 	0.003194
16.400000	1.000000	0.000000	1.000000	0.000000 	0.003194
16.450000	1.000000	0.000000	1.000000	0.000000 	0.003194
16.500000	1.000000	0.000000	1.000000	0.000000 	0.003194
16.550000	1.000000	0.000000	1.000000	0.000000 	0.003194
16.600000	1.000000	0.000000	1.000000	0.000000 	0.003194
16.650000	1.000000	0.000000	1.000000	0.000000 	0.003194
16.700000	1.000000	0.000000	1.000000	0.000000 	0.003194
16.750000	1.000000	0.000000	1.000000	0.000000 	0.003194
16.800000	1.000000	0.000000	1.000000	0.000000 	0.003194
16.850000	1.000000	0.000000	1.000000	0.000000 	0.003194
16.900000	1.000000	0.000000	1.000000	0.000000 	0.003194
16.950000	1.000000	0.000000	1.000000	0.000000 	0.003194
17.000000	1.000000	0.000000	1.000000	0.000000 	0.003194
17.050000	1.000000	0.000000	1.000000	0.000000 	0.003194
17.100000	1.000000	0.000000	1.000000	0.000000 	0.003194
17.150000	1.000000	0.000000	1.000000	0.000000 	0.003194
17.200000	1.000000	0.000000	1.000000	0.000000 	0.003194
17.250000	1.000000	0.000000	1.000000	0.000000 	0.003194
17.300000	1.000000	0.000000	1.000000	0.000000 	0.003194
17.350000	1.000000	0.000000	1.000000	0.000000 	0.003194
17.400000	1.000000	0.000000	1.000000	0.000000 	0.003194
17.450000	1.000000	0.000000	1.000000	0.000000 	0.003194
17.500000	1.000000	0.000000	1.000000	0.000000 	0.003194
17.550000	1.000000	0.000000	1.000000	0.000000 	0.003194
17.600000	1.000000	0.000000	1.000000	0.000000 	0.003194
17.650000	1.000000	0.000000	1.000000	0.000000 	0.003194
17.700000	1.000000	0.000000	1.000000	0.000000 	0.003194
17.750000	1.000000	0.000000	1.000000	0.000000 	0.003194
17.800000	1.000000	0.000000	1.000000	0.000000 	0.003194
17.850000	1.000000	0.000000	1.000000	0.000000 	0.003194
17.900000	1.000000	0.000000	1.000000	0.000000 	0.003194
17.950000	1.000000	0.000000	1.000000	0.000000 	0.003194
18.000000	1.000000	0.000000	1.000000	0.000000 	0.003194
18.050000	1.000000	0.000000	1.000000	0.000000 	0.003194
18.100000	1.000000	0.000000	1.000000	0.000000 	0.003194
18.150000	1.000000	0.000000	1.000000	0.000000 	0.003194
18.200000	1.000000	0.000000	1.000000	0.000000 	0.003194
18.250000	1.000000	0.000000	1.000000	0.000000 	0.003194
18.300000	1.000000	0.000000	1.000000	0.000000 	0.003194
18.350000	1.000000	0.000000	1.000000	0.000000 	0.003194
18.400000	1.000000	0.000000	1.000000	0.000000 	0.003194
18.450000	1.000000	0.000000	1.000000	0.000000 	0.003194
18.500000	1.000000	0.000000	1.000000	0.000000 	0.003194
18.550000	1.000000	0.000000	1.000000	0.000000 	0.003194
18.600000	1.000000	0.000000	1.000000	0.000000 	0.003194
18.650000	1.000000	0.000000	1.000000	0.000000 	0.003194
18.700000	1.000000	0.000000	1.000000	0.000001 	0.003194
18.750000	1.000000	0.000000	1.000000	0.000001 	0.003194
18.800000	0.999999	0.000000	0.999999	0.000002 	0.003194
18.850000	0.999999	0.000000	0.999999	0.000004 	0.003194
18.900000	0.999998	0.000000	0.999998	0.000007 	0.003194
18.950000	0.999996	0.000000	0.999996	0.000013 	0.003194
19.000000	0.999993	0.000000	0.999993	0.000021 	0.003194
19.050000	0.999989	0.000000	0.999989	0.000035 	0.003194
19.100000	0.999981	0.000000	0.999981	0.000058 	0.003194
19.150000	0.999970	0.000000	0.999970	0.000094 	0.003194
19.200000	0.999952	0.000000	0.999952	0.000150 	0.003194
19.250000	0.999924	0.000000	0.999924	0.000236 	0.003195
19.300000	0.999883	0.000000	0.999883	0.000367 	0.003195
19.350000	0.999821	0.000000	0.999821	0.000560 	0.003195
19.400000	0.999731	0.000000	0.999731	0.000843 	0.003195
19.450000	0.999601	0.000000	0.999601	0.001249 	0.003195
19.500000	0.999418	0.000000	0.999418	0.001821 	0.003195
19.550000	0.999165	0.000000	0.999165	0.002613 	0.003196
19.600000	0.998822	0.000000	0.998822	0.003689 	0.003196
19.650000	0.998364	0.000000	0.998364	0.005123 	0.003197
19.700000	0.997765	0.000000	0.997765	0.006999 	0.003198
19.750000	0.996997	0.000000	0.996997	0.009409 	0.003199
19.800000	0.996029	0.000000	0.996029	0.012443 	0.003201
19.850000	0.994832	0.000000	0.994832	0.016196 	0.003203
19.900000	0.993381	0.000000	0.993381	0.020753 	0.003205
19.950000	0.991650	0.000000	0.991650	0.026189 	0.003208
20.000000	0.989622	0.000000	0.989622	0.032565 	0.003211
20.050000	0.987285	0.000000	0.987285	0.039924 	0.003215
20.100000	0.984630	0.000000	0.984630	0.048288 	0.003219
20.150000	0.981660	0.000000	0.981660	0.057663 	0.003224
20.200000	0.978379	0.000000	0.978379	0.068034 	0.003229
20.250000	0.974798	0.000000	0.974798	0.079371 	0.003235
20.300000	0.970933	0.000000	0.970933	0.091633 	0.003242
20.350000	0.966801	0.000000	0.966801	0.104766 	0.003249
20.400000	0.962423	0.000000	0.962423	0.118713 	0.003256
20.450000	0.957820	0.000000	0.957820	0.133413 	0.003264
20.500000	0.953011	0.000000	0.953011	0.148803 	0.003272
20.550000	0.948020	0.000000	0.948020	0.164822 	0.003281
20.600000	0.942864	0.000000	0.942864	0.181411 	0.003290
20.650000	0.937562	0.000000	0.937562	0.198516 	0.003299
20.700000	0.932132	0.000000	0.932132	0.216086 	0.003309
20.750000	0.926589	0.000000	0.926589	0.234074 	0.003319
20.800000	0.920948	0.000000	0.920948	0.252437 	0.003329
20.850000	0.915220	0.000000	0.915220	0.271137 	0.003339
20.900000	0.909418	0.000000	0.909418	0.290141 	0.003350
20.950000	0.903552	0.000000	0.903552	0.309417 	0.003361
21.000000	0.897630	0.000000	0.897630	0.328938 	0.003372
21.050000	0.891661	0.000000	0.891661	0.348681 	0.003383
21.100000	0.885652	0.000000	0.885652	0.368624 	0.003394
21.150000	0.879609	0.000000	0.879609	0.388748 	0.003406
21.200000	0.873537	0.000000	0.873537	0.409035 	0.003418
21.250000	0.867442	0.000000	0.867442	0.429472 	0.003430
21.300000	0.861328	0.000000	0.861328	0.450045 	0.003442
21.350000	0.855199	0.000000	0.855199	0.470741 	0.003454
21.400000	0.849059	0.000000	0.849059	0.491552 	0.003467
21.450000	0.842910	0.000000	0.842910	0.512466 	0.003479
21.500000	0.836756	0.000000	0.836756	0.533475 	0.003492
21.550000	0.830598	0.000000	0.830598	0.554573 	0.003505
21.600000	0.824440	0.000000	0.824440	0.575753 	0.003518
21.650000	0.818283	0.000000	0.818283	0.597007 	0.003531
21.700000	0.812128	0.000000	0.812128	0.618332 	0.003545
21.750000	0.805979	0.000000	0.805979	0.639722 	0.003558
21.800000	0.799835	0.000000	0.799835	0.661172 	0.003572
21.850000	0.793699	0.000000	0.793699	0.682679 	0.003586
21.900000	0.787571	0.000000	0.787571	0.704239 	0.003599
21.950000	0.781453	0.000000	0.781453	0.725849 	0.003614
22.000000	0.775346	0.000000	0.775346	0.747505 	0.003628
22.050000	0.769251	0.000000	0.769251	0.769206 	0.003642
22.100000	0.763168	0.000000	0.763168	0.790948 	0.003657
22.150000	0.757098	0.000000	0.757098	0.812729 	0.003671
22.200000	0.751042	0.000000	0.751042	0.834548 	0.003686
22.250000	0.745001	0.000000	0.745001	0.856402 	0.003701
22.300000	0.738975	0.000000	0.738975	0.878289 	0.003716
22.350000	0.732964	0.000000	0.732964	0.900209 	0.003731
22.400000	0.726970	0.000000	0.726970	0.922159 	0.003747
22.450000	0.720993	0.000000	0.720993	0.944138 	0.003762
22.500000	0.715033	0.000000	0.715033	0.966145 	0.003778
22.550000	0.709090	0.000000	0.709090	0.988180 	0.003793
22.600000	0.703165	0.000000	0.703165	1.010240 	0.003809
22.650000	0.697259	0.000000	0.697259	1.032325 	0.003826
22.700000	0.691371	0.000000	0.691371	1.054433 	0.003842
22.750000	0.685502	0.000000	0.685502	1.076565 	0.003858
22.800000	0.679652	0.000000	0.679652	1.098720 	0.003875
22.850000	0.673822	0.000000	0.673822	1.120896 	0.003891
22.900000	0.668011	0.000000	0.668011	1.143093 	0.003908
22.950000	0.662220	0.000000	0.662220	1.165311 	0.003925
23.000000	0.656449	0.000000	0.656449	1.187549 	0.003943
23.050000	0.650698	0.000000	0.650698	1.209807 	0.003960
23.100000	0.644968	0.000000	0.644968	1.232083 	0.003978
23.150000	0.639259	0.000000	0.639259	1.254378 	0.003995
23.200000	0.633570	0.000000	0.633570	1.276691 	0.004013
23.250000	0.627902	0.000000	0.627902	1.299023 	0.004031
23.300000	0.622255	0.000000	0.622255	1.321372 	0.004050
23.350000	0.616629	0.000000	0.616629	1.343738 	0.004068
23.400000	0.611025	0.000000	0.611025	1.366122 	0.004087
23.450000	0.605442	0.000000	0.605442	1.388523 	0.004105
23.500000	0.599880	0.000000	0.599880	1.410940 	0.004124
23.550000	0.594340	0.000000	0.594340	1.433374 	0.004144
23.600000	0.588822	0.000000	0.588822	1.455825 	0.004163
23.650000	0.583326	0.000000	0.583326	1.478293 	0.004182
23.700000	0.577851	0.000000	0.577851	1.500776 	0.004202
23.750000	0.572398	0.000000	0.572398	1.523277 	0.004222
23.800000	0.566967	0.000000	0.566967	1.545794 	0.004242
23.850000	0.561558	0.000000	0.561558	1.568328 	0.004263
23.900000	0.556171	0.000000	0.556171	1.590878 	0.004283
23.950000	0.550805	0.000000	0.550805	1.613445 	0.004304
24.000000	0.545462	0.000000	0.545462	1.636030 	0.004325
24.050000	0.540141	0.000000	0.540141	1.658632 	0.004346
24.100000	0.534842	0.000000	0.534842	1.681252 	0.004368
24.150000	0.529564	0.000000	0.529564	1.703890 	0.004390
24.200000	0.524309	0.000000	0.524309	1.726547 	0.004412
24.250000	0.519075	0.000000	0.519075	1.749224 	0.004434
24.300000	0.513863	0.000000	0.513863	1.771921 	0.004456
24.350000	0.508672	0.000000	0.508672	1.794639 	0.004479
24.400000	0.503503	0.000000	0.503503	1.817380 	0.004502
24.450000	0.498354	0.000000	0.498354	1.840144 	0.004525
24.500000	0.493226	0.000000	0.493226	1.862934 	0.004548
24.550000	0.488119	0.000000	0.488119	1.885753 	0.004572
24.600000	0.483031	0.000000	0.483031	1.908603 	0.004596
24.650000	0.477962	0.000000	0.477962	1.931489 	0.004621
24.700000	0.472910	0.000000	0.472910	1.954416 	0.004645
24.750000	0.467874	0.000000	0.467874	1.977395 	0.004670
24.800000	0.462851	0.000000	0.462851	2.000439 	0.004695
24.850000	0.457835	0.000000	0.457835	2.023576 	0.004721
24.900000	0.452814	0.000000	0.452814	2.046862 	0.004747
24.950000	0.447749	0.000000	0.447749	2.070474 	0.004774
25.000000	0.441866	0.000000	0.441866	2.098089 	0.004806
25.050000	0.437172	0.000000	0.437172	2.120246 	0.004831
25.100000	0.432455	0.000000	0.432455	2.142633 	0.004858
25.150000	0.427743	0.000000	0.427743	2.165117 	0.004884
25.200000	0.423046	0.000000	0.423046	2.187654 	0.004911
25.250000	0.418368	0.000000	0.418368	2.210223 	0.004939
25.300000	0.413712	0.000000	0.413712	2.232812 	0.004966
25.350000	0.409079	0.000000	0.409079	2.255414 	0.004994
25.400000	0.404471	0.000000	0.404471	2.278025 	0.005023
25.450000	0.399887	0.000000	0.399887	2.300640 	0.005051
25.500000	0.395330	0.000000	0.395330	2.323258 	0.005081
25.550000	0.390798	0.000000	0.390798	2.345876 	0.005110
25.600000	0.386293	0.000000	0.386293	2.368492 	0.005140
25.650000	0.381814	0.000000	0.381814	2.391106 	0.005170
25.700000	0.377362	0.000000	0.377362	2.413716 	0.005200
25.750000	0.372936	0.000000	0.372936	2.436321 	0.005231
25.800000	0.368538	0.000000	0.368538	2.458920 	0.005262
25.850000	0.364167	0.000000	0.364167	2.481514 	0.005293
25.900000	0.359824	0.000000	0.359824	2.504100 	0.005325
25.950000	0.355507	0.000000	0.355507	2.526679 	0.005358
26.000000	0.351219	0.000000	0.351219	2.549250 	0.005390
26.050000	0.346957	0.000000	0.346957	2.571813 	0.005423
26.100000	0.342723	0.000000	0.342723	2.594366 	0.005457
26.150000	0.338517	0.000000	0.338517	2.616910 	0.005490
26.200000	0.334338	0.000000	0.334338	2.639443 	0.005525
26.250000	0.330188	0.000000	0.330188	2.661966 	0.005559
26.300000	0.326064	0.000000	0.326064	2.684479 	0.005594
26.350000	0.321969	0.000000	0.321969	2.706979 	0.005630
26.400000	0.317901	0.000000	0.317901	2.729468 	0.005666
26.450000	0.313861	0.000000	0.313861	2.751944 	0.005702
26.500000	0.309850	0.000000	0.309850	2.774408 	0.005739
26.550000	0.305865	0.000000	0.305865	2.796858 	0.005776
26.600000	0.301909	0.000000	0.301909	2.819294 	0.005814
26.650000	0.297981	0.000000	0.297981	2.841716 	0.005852
26.700000	0.294081	0.000000	0.294081	2.864123 	0.005891
26.750000	0.290209	0.000000	0.290209	2.886515 	0.005930
26.800000	0.286364	0.000000	0.286364	2.908892 	0.005969