VARIABLES = X,Ksi,B,H,U,tau 
ZONE T="Time 2.500000", I=1000, DATAPACKING=POINT
0.000000	1.000000	0.000000	1.000000	0.000000 	0.003194
0.050000	1.000000	0.000000	1.000000	0.000000 	0.003194
0.100000	1.000000	0.000000	1.000000	0.000000 	0.003194
0.150000	1.000000	0.000000	1.000000	0.000000 	0.003194
0.200000	1.000000	0.000000	1.000000	0.000000 	0.003194
0.250000	1.000000	0.000000	1.000000	0.000000 	0.003194
0.300000	1.000000	0.000000	1.000000	0.000000 	0.003194
0.350000	1.000000	0.000000	1.000000	0.000000 	0.003194
0.400000	1.000000	0.000000	1.000000	0.000000 	0.003194
0.450000	1.000000	0.000000	1.000000	0.000000 	0.003194
0.500000	1.000000	0.000000	1.000000	0.000000 	0.003194
0.550000	1.000000	0.000000	1.000000	0.000000 	0.003194
0.600000	1.000000	0.000000	1.000000	0.000000 	0.003194
0.650000	1.000000	0.000000	1.000000	0.000000 	0.003194
0.700000	1.000000	0.000000	1.000000	0.000000 	0.003194
0.750000	1.000000	0.000000	1.000000	0.000000 	0.003194
0.800000	1.000000	0.000000	1.000000	0.000000 	0.003194
0.850000	1.000000	0.000000	1.000000	0.000000 	0.003194
0.900000	1.000000	0.000000	1.000000	0.000000 	0.003194
0.950000	1.000000	0.000000	1.000000	0.000000 	0.003194
1.000000	1.000000	0.000000	1.000000	0.000000 	0.003194
1.050000	1.000000	0.000000	1.000000	0.000000 	0.003194
1.100000	1.000000	0.000000	1.000000	0.000000 	0.003194
1.150000	1.000000	0.000000	1.000000	0.000000 	0.003194
1.200000	1.000000	0.000000	1.000000	0.000000 	0.003194
1.250000	1.000000	0.000000	1.000000	0.000000 	0.003194
1.300000	1.000000	0.000000	1.000000	0.000000 	0.003194
1.350000	1.000000	0.000000	1.000000	0.000000 	0.003194
1.400000	1.000000	0.000000	1.000000	0.000000 	0.003194
1.450000	1.000000	0.000000	1.000000	0.000000 	0.003194
1.500000	1.000000	0.000000	1.000000	0.000000 	0.003194
1.550000	1.000000	0.000000	1.000000	0.000000 	0.003194
1.600000	1.000000	0.000000	1.000000	0.000000 	0.003194
1.650000	1.000000	0.000000	1.000000	0.000000 	0.003194
1.700000	1.000000	0.000000	1.000000	0.000000 	0.003194
1.750000	1.000000	0.000000	1.000000	0.000000 	0.003194
1.800000	1.000000	0.000000	1.000000	0.000000 	0.003194
1.850000	1.000000	0.000000	1.000000	0.000000 	0.003194
1.900000	1.000000	0.000000	1.000000	0.000000 	0.003194
1.950000	1.000000	0.000000	1.000000	0.000000 	0.003194
2.000000	1.000000	0.000000	1.000000	0.000000 	0.003194
2.050000	1.000000	0.000000	1.000000	0.000000 	0.003194
2.100000	1.000000	0.000000	1.000000	0.000000 	0.003194
2.150000	1.000000	0.000000	1.000000	0.000000 	0.003194
2.200000	1.000000	0.000000	1.000000	0.000000 	0.003194
2.250000	1.000000	0.000000	1.000000	0.000000 	0.003194
2.300000	1.000000	0.000000	1.000000	0.000000 	0.003194
2.350000	1.000000	0.000000	1.000000	0.000000 	0.003194
2.400000	1.000000	0.000000	1.000000	0.000000 	0.003194
2.450000	1.000000	0.000000	1.000000	0.000000 	0.003194
2.500000	1.000000	0.000000	1.000000	0.000000 	0.003194
2.550000	1.000000	0.000000	1.000000	0.000000 	0.003194
2.600000	1.000000	0.000000	1.000000	0.000000 	0.003194
2.650000	1.000000	0.000000	1.000000	0.000000 	0.003194
2.700000	1.000000	0.000000	1.000000	0.000000 	0.003194
2.750000	1.000000	0.000000	1.000000	0.000000 	0.003194
2.800000	1.000000	0.000000	1.000000	0.000000 	0.003194
2.850000	1.000000	0.000000	1.000000	0.000000 	0.003194
2.900000	1.000000	0.000000	1.000000	0.000000 	0.003194
2.950000	1.000000	0.000000	1.000000	0.000000 	0.003194
3.000000	1.000000	0.000000	1.000000	0.000000 	0.003194
3.050000	1.000000	0.000000	1.000000	0.000000 	0.003194
3.100000	1.000000	0.000000	1.000000	0.000000 	0.003194
3.150000	1.000000	0.000000	1.000000	0.000000 	0.003194
3.200000	1.000000	0.000000	1.000000	0.000000 	0.003194
3.250000	1.000000	0.000000	1.000000	0.000000 	0.003194
3.300000	1.000000	0.000000	1.000000	0.000000 	0.003194
3.350000	1.000000	0.000000	1.000000	0.000000 	0.003194
3.400000	1.000000	0.000000	1.000000	0.000000 	0.003194
3.450000	1.000000	0.000000	1.000000	0.000000 	0.003194
3.500000	1.000000	0.000000	1.000000	0.000000 	0.003194
3.550000	1.000000	0.000000	1.000000	0.000000 	0.003194
3.600000	1.000000	0.000000	1.000000	0.000000 	0.003194
3.650000	1.000000	0.000000	1.000000	0.000000 	0.003194
3.700000	1.000000	0.000000	1.000000	0.000000 	0.003194
3.750000	1.000000	0.000000	1.000000	0.000000 	0.003194
3.800000	1.000000	0.000000	1.000000	0.000000 	0.003194
3.850000	1.000000	0.000000	1.000000	0.000000 	0.003194
3.900000	1.000000	0.000000	1.000000	0.000000 	0.003194
3.950000	1.000000	0.000000	1.000000	0.000000 	0.003194
4.000000	1.000000	0.000000	1.000000	0.000000 	0.003194
4.050000	1.000000	0.000000	1.000000	0.000000 	0.003194
4.100000	1.000000	0.000000	1.000000	0.000000 	0.003194
4.150000	1.000000	0.000000	1.000000	0.000000 	0.003194
4.200000	1.000000	0.000000	1.000000	0.000000 	0.003194
4.250000	1.000000	0.000000	1.000000	0.000000 	0.003194
4.300000	1.000000	0.000000	1.000000	0.000000 	0.003194
4.350000	1.000000	0.000000	1.000000	0.000000 	0.003194
4.400000	1.000000	0.000000	1.000000	0.000000 	0.003194
4.450000	1.000000	0.000000	1.000000	0.000000 	0.003194
4.500000	1.000000	0.000000	1.000000	0.000000 	0.003194
4.550000	1.000000	0.000000	1.000000	0.000000 	0.003194
4.600000	1.000000	0.000000	1.000000	0.000000 	0.003194
4.650000	1.000000	0.000000	1.000000	0.000000 	0.003194
4.700000	1.000000	0.000000	1.000000	0.000000 	0.003194
4.750000	1.000000	0.000000	1.000000	0.000000 	0.003194
4.800000	1.000000	0.000000	1.000000	0.000000 	0.003194
4.850000	1.000000	0.000000	1.000000	0.000000 	0.003194
4.900000	1.000000	0.000000	1.000000	0.000000 	0.003194
4.950000	1.000000	0.000000	1.000000	0.000000 	0.003194
5.000000	1.000000	0.000000	1.000000	0.000000 	0.003194
5.050000	1.000000	0.000000	1.000000	0.000000 	0.003194
5.100000	1.000000	0.000000	1.000000	0.000000 	0.003194
5.150000	1.000000	0.000000	1.000000	0.000000 	0.003194
5.200000	1.000000	0.000000	1.000000	0.000000 	0.003194
5.250000	1.000000	0.000000	1.000000	0.000000 	0.003194
5.300000	1.000000	0.000000	1.000000	0.000000 	0.003194
5.350000	1.000000	0.000000	1.000000	0.000000 	0.003194
5.400000	1.000000	0.000000	1.000000	0.000000 	0.003194
5.450000	1.000000	0.000000	1.000000	0.000000 	0.003194
5.500000	1.000000	0.000000	1.000000	0.000000 	0.003194
5.550000	1.000000	0.000000	1.000000	0.000000 	0.003194
5.600000	1.000000	0.000000	1.000000	0.000000 	0.003194
5.650000	1.000000	0.000000	1.000000	0.000000 	0.003194
5.700000	1.000000	0.000000	1.000000	0.000000 	0.003194
5.750000	1.000000	0.000000	1.000000	0.000000 	0.003194
5.800000	1.000000	0.000000	1.000000	0.000000 	0.003194
5.850000	1.000000	0.000000	1.000000	0.000000 	0.003194
5.900000	1.000000	0.000000	1.000000	0.000000 	0.003194
5.950000	1.000000	0.000000	1.000000	0.000000 	0.003194
6.000000	1.000000	0.000000	1.000000	0.000000 	0.003194
6.050000	1.000000	0.000000	1.000000	0.000000 	0.003194
6.100000	1.000000	0.000000	1.000000	0.000000 	0.003194
6.150000	1.000000	0.000000	1.000000	0.000000 	0.003194
6.200000	1.000000	0.000000	1.000000	0.000000 	0.003194
6.250000	1.000000	0.000000	1.000000	0.000000 	0.003194
6.300000	1.000000	0.000000	1.000000	0.000000 	0.003194
6.350000	1.000000	0.000000	1.000000	0.000000 	0.003194
6.400000	1.000000	0.000000	1.000000	0.000000 	0.003194
6.450000	1.000000	0.000000	1.000000	0.000000 	0.003194
6.500000	1.000000	0.000000	1.000000	0.000000 	0.003194
6.550000	1.000000	0.000000	1.000000	0.000000 	0.003194
6.600000	1.000000	0.000000	1.000000	0.000000 	0.003194
6.650000	1.000000	0.000000	1.000000	0.000000 	0.003194
6.700000	1.000000	0.000000	1.000000	0.000000 	0.003194
6.750000	1.000000	0.000000	1.000000	0.000000 	0.003194
6.800000	1.000000	0.000000	1.000000	0.000000 	0.003194
6.850000	1.000000	0.000000	1.000000	0.000000 	0.003194
6.900000	1.000000	0.000000	1.000000	0.000000 	0.003194
6.950000	1.000000	0.000000	1.000000	0.000000 	0.003194
7.000000	1.000000	0.000000	1.000000	0.000000 	0.003194
7.050000	1.000000	0.000000	1.000000	0.000000 	0.003194
7.100000	1.000000	0.000000	1.000000	0.000000 	0.003194
7.150000	1.000000	0.000000	1.000000	0.000000 	0.003194
7.200000	1.000000	0.000000	1.000000	0.000000 	0.003194
7.250000	1.000000	0.000000	1.000000	0.000000 	0.003194
7.300000	1.000000	0.000000	1.000000	0.000000 	0.003194
7.350000	1.000000	0.000000	1.000000	0.000000 	0.003194
7.400000	1.000000	0.000000	1.000000	0.000000 	0.003194
7.450000	1.000000	0.000000	1.000000	0.000000 	0.003194
7.500000	1.000000	0.000000	1.000000	0.000000 	0.003194
7.550000	1.000000	0.000000	1.000000	0.000000 	0.003194
7.600000	1.000000	0.000000	1.000000	0.000000 	0.003194
7.650000	1.000000	0.000000	1.000000	0.000000 	0.003194
7.700000	1.000000	0.000000	1.000000	0.000000 	0.003194
7.750000	1.000000	0.000000	1.000000	0.000000 	0.003194
7.800000	1.000000	0.000000	1.000000	0.000000 	0.003194
7.850000	1.000000	0.000000	1.000000	0.000000 	0.003194
7.900000	1.000000	0.000000	1.000000	0.000000 	0.003194
7.950000	1.000000	0.000000	1.000000	0.000000 	0.003194
8.000000	1.000000	0.000000	1.000000	0.000000 	0.003194
8.050000	1.000000	0.000000	1.000000	0.000000 	0.003194
8.100000	1.000000	0.000000	1.000000	0.000000 	0.003194
8.150000	1.000000	0.000000	1.000000	0.000000 	0.003194
8.200000	1.000000	0.000000	1.000000	0.000000 	0.003194
8.250000	1.000000	0.000000	1.000000	0.000000 	0.003194
8.300000	1.000000	0.000000	1.000000	0.000000 	0.003194
8.350000	1.000000	0.000000	1.000000	0.000000 	0.003194
8.400000	1.000000	0.000000	1.000000	0.000000 	0.003194
8.450000	1.000000	0.000000	1.000000	0.000000 	0.003194
8.500000	1.000000	0.000000	1.000000	0.000000 	0.003194
8.550000	1.000000	0.000000	1.000000	0.000000 	0.003194
8.600000	1.000000	0.000000	1.000000	0.000000 	0.003194
8.650000	1.000000	0.000000	1.000000	0.000000 	0.003194
8.700000	1.000000	0.000000	1.000000	0.000000 	0.003194
8.750000	1.000000	0.000000	1.000000	0.000000 	0.003194
8.800000	1.000000	0.000000	1.000000	0.000000 	0.003194
8.850000	1.000000	0.000000	1.000000	0.000000 	0.003194
8.900000	1.000000	0.000000	1.000000	0.000000 	0.003194
8.950000	1.000000	0.000000	1.000000	0.000000 	0.003194
9.000000	1.000000	0.000000	1.000000	0.000000 	0.003194
9.050000	1.000000	0.000000	1.000000	0.000000 	0.003194
9.100000	1.000000	0.000000	1.000000	0.000000 	0.003194
9.150000	1.000000	0.000000	1.000000	0.000000 	0.003194
9.200000	1.000000	0.000000	1.000000	0.000000 	0.003194
9.250000	1.000000	0.000000	1.000000	0.000000 	0.003194
9.300000	1.000000	0.000000	1.000000	0.000000 	0.003194
9.350000	1.000000	0.000000	1.000000	0.000000 	0.003194
9.400000	1.000000	0.000000	1.000000	0.000000 	0.003194
9.450000	1.000000	0.000000	1.000000	0.000000 	0.003194
9.500000	1.000000	0.000000	1.000000	0.000000 	0.003194
9.550000	1.000000	0.000000	1.000000	0.000000 	0.003194
9.600000	1.000000	0.000000	1.000000	0.000000 	0.003194
9.650000	1.000000	0.000000	1.000000	0.000000 	0.003194
9.700000	1.000000	0.000000	1.000000	0.000000 	0.003194
9.750000	1.000000	0.000000	1.000000	0.000000 	0.003194
9.800000	1.000000	0.000000	1.000000	0.000000 	0.003194
9.850000	1.000000	0.000000	1.000000	0.000000 	0.003194
9.900000	1.000000	0.000000	1.000000	0.000000 	0.003194
9.950000	1.000000	0.000000	1.000000	0.000000 	0.003194
10.000000	1.000000	0.000000	1.000000	0.000000 	0.003194
10.050000	1.000000	0.000000	1.000000	0.000000 	0.003194
10.100000	1.000000	0.000000	1.000000	0.000000 	0.003194
10.150000	1.000000	0.000000	1.000000	0.000000 	0.003194
10.200000	1.000000	0.000000	1.000000	0.000000 	0.003194
10.250000	1.000000	0.000000	1.000000	0.000000 	0.003194
10.300000	1.000000	0.000000	1.000000	0.000000 	0.003194
10.350000	1.000000	0.000000	1.000000	0.000000 	0.003194
10.400000	1.000000	0.000000	1.000000	0.000000 	0.003194
10.450000	1.000000	0.000000	1.000000	0.000000 	0.003194
10.500000	1.000000	0.000000	1.000000	0.000000 	0.003194
10.550000	1.000000	0.000000	1.000000	0.000000 	0.003194
10.600000	1.000000	0.000000	1.000000	0.000000 	0.003194
10.650000	1.000000	0.000000	1.000000	0.000000 	0.003194
10.700000	1.000000	0.000000	1.000000	0.000000 	0.003194
10.750000	1.000000	0.000000	1.000000	0.000000 	0.003194
10.800000	1.000000	0.000000	1.000000	0.000000 	0.003194
10.850000	1.000000	0.000000	1.000000	0.000000 	0.003194
10.900000	1.000000	0.000000	1.000000	0.000000 	0.003194
10.950000	1.000000	0.000000	1.000000	0.000000 	0.003194
11.000000	1.000000	0.000000	1.000000	0.000000 	0.003194
11.050000	1.000000	0.000000	1.000000	0.000000 	0.003194
11.100000	1.000000	0.000000	1.000000	0.000000 	0.003194
11.150000	1.000000	0.000000	1.000000	0.000000 	0.003194
11.200000	1.000000	0.000000	1.000000	0.000000 	0.003194
11.250000	1.000000	0.000000	1.000000	0.000000 	0.003194
11.300000	1.000000	0.000000	1.000000	0.000000 	0.003194
11.350000	1.000000	0.000000	1.000000	0.000000 	0.003194
11.400000	1.000000	0.000000	1.000000	0.000000 	0.003194
11.450000	1.000000	0.000000	1.000000	0.000000 	0.003194
11.500000	1.000000	0.000000	1.000000	0.000000 	0.003194
11.550000	1.000000	0.000000	1.000000	0.000000 	0.003194
11.600000	1.000000	0.000000	1.000000	0.000000 	0.003194
11.650000	1.000000	0.000000	1.000000	0.000000 	0.003194
11.700000	1.000000	0.000000	1.000000	0.000000 	0.003194
11.750000	1.000000	0.000000	1.000000	0.000000 	0.003194
11.800000	1.000000	0.000000	1.000000	0.000000 	0.003194
11.850000	1.000000	0.000000	1.000000	0.000000 	0.003194
11.900000	1.000000	0.000000	1.000000	0.000000 	0.003194
11.950000	1.000000	0.000000	1.000000	0.000000 	0.003194
12.000000	1.000000	0.000000	1.000000	0.000000 	0.003194
12.050000	1.000000	0.000000	1.000000	0.000000 	0.003194
12.100000	1.000000	0.000000	1.000000	0.000000 	0.003194
12.150000	1.000000	0.000000	1.000000	0.000000 	0.003194
12.200000	1.000000	0.000000	1.000000	0.000000 	0.003194
12.250000	1.000000	0.000000	1.000000	0.000000 	0.003194
12.300000	1.000000	0.000000	1.000000	0.000000 	0.003194
12.350000	1.000000	0.000000	1.000000	0.000000 	0.003194
12.400000	1.000000	0.000000	1.000000	0.000000 	0.003194
12.450000	1.000000	0.000000	1.000000	0.000000 	0.003194
12.500000	1.000000	0.000000	1.000000	0.000000 	0.003194
12.550000	1.000000	0.000000	1.000000	0.000000 	0.003194
12.600000	1.000000	0.000000	1.000000	0.000000 	0.003194
12.650000	1.000000	0.000000	1.000000	0.000000 	0.003194
12.700000	1.000000	0.000000	1.000000	0.000000 	0.003194
12.750000	1.000000	0.000000	1.000000	0.000000 	0.003194
12.800000	1.000000	0.000000	1.000000	0.000000 	0.003194
12.850000	1.000000	0.000000	1.000000	0.000000 	0.003194
12.900000	1.000000	0.000000	1.000000	0.000000 	0.003194
12.950000	1.000000	0.000000	1.000000	0.000000 	0.003194
13.000000	1.000000	0.000000	1.000000	0.000000 	0.003194
13.050000	1.000000	0.000000	1.000000	0.000000 	0.003194
13.100000	1.000000	0.000000	1.000000	0.000000 	0.003194
13.150000	1.000000	0.000000	1.000000	0.000000 	0.003194
13.200000	1.000000	0.000000	1.000000	0.000000 	0.003194
13.250000	1.000000	0.000000	1.000000	0.000000 	0.003194
13.300000	1.000000	0.000000	1.000000	0.000000 	0.003194
13.350000	1.000000	0.000000	1.000000	0.000000 	0.003194
13.400000	1.000000	0.000000	1.000000	0.000000 	0.003194
13.450000	1.000000	0.000000	1.000000	0.000000 	0.003194
13.500000	1.000000	0.000000	1.000000	0.000000 	0.003194
13.550000	1.000000	0.000000	1.000000	0.000000 	0.003194
13.600000	1.000000	0.000000	1.000000	0.000000 	0.003194
13.650000	1.000000	0.000000	1.000000	0.000000 	0.003194
13.700000	1.000000	0.000000	1.000000	0.000000 	0.003194
13.750000	1.000000	0.000000	1.000000	0.000000 	0.003194
13.800000	1.000000	0.000000	1.000000	0.000000 	0.003194
13.850000	1.000000	0.000000	1.000000	0.000000 	0.003194
13.900000	1.000000	0.000000	1.000000	0.000000 	0.003194
13.950000	1.000000	0.000000	1.000000	0.000000 	0.003194
14.000000	1.000000	0.000000	1.000000	0.000000 	0.003194
14.050000	1.000000	0.000000	1.000000	0.000000 	0.003194
14.100000	1.000000	0.000000	1.000000	0.000000 	0.003194
14.150000	1.000000	0.000000	1.000000	0.000000 	0.003194
14.200000	1.000000	0.000000	1.000000	0.000000 	0.003194
14.250000	1.000000	0.000000	1.000000	0.000000 	0.003194
14.300000	1.000000	0.000000	1.000000	0.000000 	0.003194
14.350000	1.000000	0.000000	1.000000	0.000000 	0.003194
14.400000	1.000000	0.000000	1.000000	0.000000 	0.003194
14.450000	1.000000	0.000000	1.000000	0.000000 	0.003194
14.500000	1.000000	0.000000	1.000000	0.000000 	0.003194
14.550000	1.000000	0.000000	1.000000	0.000000 	0.003194
14.600000	1.000000	0.000000	1.000000	0.000000 	0.003194
14.650000	1.000000	0.000000	1.000000	0.000000 	0.003194
14.700000	1.000000	0.000000	1.000000	0.000000 	0.003194
14.750000	1.000000	0.000000	1.000000	0.000000 	0.003194
14.800000	1.000000	0.000000	1.000000	0.000000 	0.003194
14.850000	1.000000	0.000000	1.000000	0.000000 	0.003194
14.900000	1.000000	0.000000	1.000000	0.000000 	0.003194
14.950000	1.000000	0.000000	1.000000	0.000000 	0.003194
15.000000	1.000000	0.000000	1.000000	0.000000 	0.003194
15.050000	1.000000	0.000000	1.000000	0.000000 	0.003194
15.100000	1.000000	0.000000	1.000000	0.000000 	0.003194
15.150000	1.000000	0.000000	1.000000	0.000000 	0.003194
15.200000	1.000000	0.000000	1.000000	0.000001 	0.003194
15.250000	1.000000	0.000000	1.000000	0.000001 	0.003194
15.300000	0.999999	0.000000	0.999999	0.000002 	0.003194
15.350000	0.999999	0.000000	0.999999	0.000003 	0.003194
15.400000	0.999999	0.000000	0.999999	0.000004 	0.003194
15.450000	0.999998	0.000000	0.999998	0.000007 	0.003194
15.500000	0.999997	0.000000	0.999997	0.000011 	0.003194
15.550000	0.999995	0.000000	0.999995	0.000016 	0.003194
15.600000	0.999992	0.000000	0.999992	0.000025 	0.003194
15.650000	0.999988	0.000000	0.999988	0.000037 	0.003194
15.700000	0.999982	0.000000	0.999982	0.000056 	0.003194
15.750000	0.999974	0.000000	0.999974	0.000082 	0.003194
15.800000	0.999962	0.000000	0.999962	0.000120 	0.003194
15.850000	0.999944	0.000000	0.999944	0.000174 	0.003194
15.900000	0.999920	0.000000	0.999920	0.000249 	0.003195
15.950000	0.999887	0.000000	0.999887	0.000353 	0.003195
16.000000	0.999842	0.000000	0.999842	0.000496 	0.003195
16.050000	0.999780	0.000000	0.999780	0.000688 	0.003195
16.100000	0.999698	0.000000	0.999698	0.000946 	0.003195
16.150000	0.999589	0.000000	0.999589	0.001286 	0.003195
16.200000	0.999448	0.000000	0.999448	0.001729 	0.003195
16.250000	0.999265	0.000000	0.999265	0.002301 	0.003196
16.300000	0.999033	0.000000	0.999033	0.003028 	0.003196
16.350000	0.998741	0.000000	0.998741	0.003941 	0.003196
16.400000	0.998379	0.000000	0.998379	0.005075 	0.003197
16.450000	0.997936	0.000000	0.997936	0.006464 	0.003198
16.500000	0.997400	0.000000	0.997400	0.008146 	0.003199
16.550000	0.996758	0.000000	0.996758	0.010155 	0.003200
16.600000	0.996002	0.000000	0.996002	0.012529 	0.003201
16.650000	0.995119	0.000000	0.995119	0.015298 	0.003202
16.700000	0.994101	0.000000	0.994101	0.018491 	0.003204
16.750000	0.992941	0.000000	0.992941	0.022134 	0.003206
16.800000	0.991633	0.000000	0.991633	0.026243 	0.003208
16.850000	0.990174	0.000000	0.990174	0.030833 	0.003210
16.900000	0.988561	0.000000	0.988561	0.035908 	0.003213
16.950000	0.986795	0.000000	0.986795	0.041471 	0.003216
17.000000	0.984877	0.000000	0.984877	0.047514 	0.003219
17.050000	0.982812	0.000000	0.982812	0.054029 	0.003222
17.100000	0.980605	0.000000	0.980605	0.061001 	0.003226
17.150000	0.978262	0.000000	0.978262	0.068411 	0.003230
17.200000	0.975789	0.000000	0.975789	0.076240 	0.003234
17.250000	0.973195	0.000000	0.973195	0.084463 	0.003238
17.300000	0.970487	0.000000	0.970487	0.093059 	0.003243
17.350000	0.967674	0.000000	0.967674	0.102003 	0.003247
17.400000	0.964763	0.000000	0.964763	0.111270 	0.003252
17.450000	0.961762	0.000000	0.961762	0.120838 	0.003257
17.500000	0.958680	0.000000	0.958680	0.130683 	0.003262
17.550000	0.955522	0.000000	0.955522	0.140785 	0.003268
17.600000	0.952295	0.000000	0.952295	0.151122 	0.003273
17.650000	0.949007	0.000000	0.949007	0.161676 	0.003279
17.700000	0.945662	0.000000	0.945662	0.172429 	0.003285
17.750000	0.942267	0.000000	0.942267	0.183364 	0.003291
17.800000	0.938826	0.000000	0.938826	0.194467 	0.003297
17.850000	0.935344	0.000000	0.935344	0.205723 	0.003303
17.900000	0.931825	0.000000	0.931825	0.217120 	0.003309
17.950000	0.928273	0.000000	0.928273	0.228646 	0.003316
18.000000	0.924691	0.000000	0.924691	0.240292 	0.003322
18.050000	0.921082	0.000000	0.921082	0.252046 	0.003328
18.100000	0.917450	0.000000	0.917450	0.263901 	0.003335
18.150000	0.913796	0.000000	0.913796	0.275848 	0.003342
18.200000	0.910124	0.000000	0.910124	0.287881 	0.003348
18.250000	0.906436	0.000000	0.906436	0.299993 	0.003355
18.300000	0.902732	0.000000	0.902732	0.312177 	0.003362
18.350000	0.899016	0.000000	0.899016	0.324429 	0.003369
18.400000	0.895289	0.000000	0.895289	0.336743 	0.003376
18.450000	0.891552	0.000000	0.891552	0.349115 	0.003383
18.500000	0.887806	0.000000	0.887806	0.361541 	0.003390
18.550000	0.884053	0.000000	0.884053	0.374017 	0.003397
18.600000	0.880295	0.000000	0.880295	0.386540 	0.003405
18.650000	0.876531	0.000000	0.876531	0.399107 	0.003412
18.700000	0.872763	0.000000	0.872763	0.411714 	0.003419
18.750000	0.868992	0.000000	0.868992	0.424359 	0.003427
18.800000	0.865218	0.000000	0.865218	0.437041 	0.003434
18.850000	0.861443	0.000000	0.861443	0.449755 	0.003442
18.900000	0.857667	0.000000	0.857667	0.462501 	0.003449
18.950000	0.853890	0.000000	0.853890	0.475277 	0.003457
19.000000	0.850113	0.000000	0.850113	0.488080 	0.003465
19.050000	0.846337	0.000000	0.846337	0.500910 	0.003472
19.100000	0.842562	0.000000	0.842562	0.513765 	0.003480
19.150000	0.838789	0.000000	0.838789	0.526643 	0.003488
19.200000	0.835017	0.000000	0.835017	0.539543 	0.003496
19.250000	0.831248	0.000000	0.831248	0.552464 	0.003504
19.300000	0.827482	0.000000	0.827482	0.565406 	0.003512
19.350000	0.823719	0.000000	0.823719	0.578366 	0.003520
19.400000	0.819959	0.000000	0.819959	0.591344 	0.003528
19.450000	0.816203	0.000000	0.816203	0.604339 	0.003536
19.500000	0.812451	0.000000	0.812451	0.617351 	0.003544
19.550000	0.808703	0.000000	0.808703	0.630378 	0.003552
19.600000	0.804959	0.000000	0.804959	0.643420 	0.003560
19.650000	0.801220	0.000000	0.801220	0.656476 	0.003569
19.700000	0.797486	0.000000	0.797486	0.669546 	0.003577
19.750000	0.793757	0.000000	0.793757	0.682629 	0.003585
19.800000	0.790033	0.000000	0.790033	0.695724 	0.003594
19.850000	0.786315	0.000000	0.786315	0.708831 	0.003602
19.900000	0.782602	0.000000	0.782602	0.721950 	0.003611
19.950000	0.778895	0.000000	0.778895	0.735079 	0.003619
20.000000	0.775193	0.000000	0.775193	0.748219 	0.003628
20.050000	0.771498	0.000000	0.771498	0.761370 	0.003637
20.100000	0.767808	0.000000	0.767808	0.774530 	0.003646
20.150000	0.764125	0.000000	0.764125	0.787700 	0.003654
20.200000	0.760448	0.000000	0.760448	0.800878 	0.003663
20.250000	0.756778	0.000000	0.756778	0.814066 	0.003672
20.300000	0.753114	0.000000	0.753114	0.827262 	0.003681
20.350000	0.749457	0.000000	0.749457	0.840466 	0.003690
20.400000	0.745806	0.000000	0.745806	0.853679 	0.003699
20.450000	0.742162	0.000000	0.742162	0.866899 	0.003708
20.500000	0.738525	0.000000	0.738525	0.880126 	0.003717
20.550000	0.734895	0.000000	0.734895	0.893361 	0.003726
20.600000	0.731272	0.000000	0.731272	0.906603 	0.003735
20.650000	0.727657	0.000000	0.727657	0.919852 	0.003745
20.700000	0.724048	0.000000	0.724048	0.933107 	0.003754
20.750000	0.720446	0.000000	0.720446	0.946369 	0.003763
20.800000	0.716852	0.000000	0.716852	0.959637 	0.003773
20.850000	0.713265	0.000000	0.713265	0.972911 	0.003782
20.900000	0.709686	0.000000	0.709686	0.986192 	0.003792
20.950000	0.706114	0.000000	0.706114	0.999478 	0.003801
21.000000	0.702549	0.000000	0.702549	1.012770 	0.003811
21.050000	0.698992	0.000000	0.698992	1.026067 	0.003821
21.100000	0.695443	0.000000	0.695443	1.039370 	0.003831
21.150000	0.691901	0.000000	0.691901	1.052678 	0.003840
21.200000	0.688367	0.000000	0.688367	1.065992 	0.003850
21.250000	0.684841	0.000000	0.684841	1.079310 	0.003860
21.300000	0.681322	0.000000	0.681322	1.092634 	0.003870
21.350000	0.677811	0.000000	0.677811	1.105962 	0.003880
21.400000	0.674308	0.000000	0.674308	1.119296 	0.003890
21.450000	0.670813	0.000000	0.670813	1.132634 	0.003900
21.500000	0.667325	0.000000	0.667325	1.145976 	0.003910
21.550000	0.663846	0.000000	0.663846	1.159324 	0.003921
21.600000	0.660374	0.000000	0.660374	1.172675 	0.003931
21.650000	0.656911	0.000000	0.656911	1.186032 	0.003941
21.700000	0.653455	0.000000	0.653455	1.199392 	0.003952
21.750000	0.650008	0.000000	0.650008	1.212757 	0.003962
21.800000	0.646568	0.000000	0.646568	1.226126 	0.003973
21.850000	0.643137	0.000000	0.643137	1.239499 	0.003983
21.900000	0.639713	0.000000	0.639713	1.252876 	0.003994
21.950000	0.636298	0.000000	0.636298	1.266258 	0.004005
22.000000	0.632891	0.000000	0.632891	1.279643 	0.004015
22.050000	0.629492	0.000000	0.629492	1.293033 	0.004026
22.100000	0.626101	0.000000	0.626101	1.306426 	0.004037
22.150000	0.622718	0.000000	0.622718	1.319823 	0.004048
22.200000	0.619344	0.000000	0.619344	1.333225 	0.004059
22.250000	0.615978	0.000000	0.615978	1.346630 	0.004070
22.300000	0.612620	0.000000	0.612620	1.360038 	0.004081
22.350000	0.609270	0.000000	0.609270	1.373451 	0.004092
22.400000	0.605928	0.000000	0.605928	1.386867 	0.004104
22.450000	0.602595	0.000000	0.602595	1.400287 	0.004115
22.500000	0.599270	0.000000	0.599270	1.413711 	0.004126
22.550000	0.595954	0.000000	0.595954	1.427138 	0.004138
22.600000	0.592645	0.000000	0.592645	1.440570 	0.004149
22.650000	0.589345	0.000000	0.589345	1.454004 	0.004161
22.700000	0.586054	0.000000	0.586054	1.467443 	0.004173
22.750000	0.582770	0.000000	0.582770	1.480885 	0.004184
22.800000	0.579495	0.000000	0.579495	1.494330 	0.004196
22.850000	0.576229	0.000000	0.576229	1.507780 	0.004208
22.900000	0.572970	0.000000	0.572970	1.521233 	0.004220
22.950000	0.569720	0.000000	0.569720	1.534689 	0.004232
23.000000	0.566479	0.000000	0.566479	1.548150 	0.004244
23.050000	0.563246	0.000000	0.563246	1.561614 	0.004256
23.100000	0.560021	0.000000	0.560021	1.575081 	0.004269
23.150000	0.556804	0.000000	0.556804	1.588552 	0.004281
23.200000	0.553596	0.000000	0.553596	1.602027 	0.004293
23.250000	0.550397	0.000000	0.550397	1.615506 	0.004306
23.300000	0.547205	0.000000	0.547205	1.628989 	0.004318
23.350000	0.544022	0.000000	0.544022	1.642475 	0.004331
23.400000	0.540848	0.000000	0.540848	1.655965 	0.004344
23.450000	0.537682	0.000000	0.537682	1.669459 	0.004356
23.500000	0.534524	0.000000	0.534524	1.682957 	0.004369
23.550000	0.531375	0.000000	0.531375	1.696459 	0.004382
23.600000	0.528234	0.000000	0.528234	1.709965 	0.004395
23.650000	0.525101	0.000000	0.525101	1.723475 	0.004408
23.700000	0.521977	0.000000	0.521977	1.736990 	0.004421
23.750000	0.518861	0.000000	0.518861	1.750508 	0.004435
23.800000	0.515753	0.000000	0.515753	1.764031 	0.004448
23.850000	0.512654	0.000000	0.512654	1.777559 	0.004461
23.900000	0.509563	0.000000	0.509563	1.791091 	0.004475
23.950000	0.506480	0.000000	0.506480	1.804628 	0.004489
24.000000	0.503406	0.000000	0.503406	1.818170 	0.004502
24.050000	0.500339	0.000000	0.500339	1.831717 	0.004516
24.100000	0.497281	0.000000	0.497281	1.845270 	0.004530
24.150000	0.494231	0.000000	0.494231	1.858828 	0.004544
24.200000	0.491189	0.000000	0.491189	1.872392 	0.004558
24.250000	0.488155	0.000000	0.488155	1.885962 	0.004572
24.300000	0.485129	0.000000	0.485129	1.899539 	0.004586
24.350000	0.482111	0.000000	0.482111	1.913124 	0.004601
24.400000	0.479100	0.000000	0.479100	1.926716 	0.004615
24.450000	0.476097	0.000000	0.476097	1.940316 	0.004630
24.500000	0.473101	0.000000	0.473101	1.953926 	0.004644
24.550000	0.470113	0.000000	0.470113	1.967547 	0.004659
24.600000	0.467131	0.000000	0.467131	1.981180 	0.004674
24.650000	0.464156	0.000000	0.464156	1.994827 	0.004689
24.700000	0.461186	0.000000	0.461186	2.008491 	0.004704
24.750000	0.458221	0.000000	0.458221	2.022178 	0.004719
24.800000	0.455260	0.000000	0.455260	2.035893 	0.004734
24.850000	0.452299	0.000000	0.452299	2.049650 	0.004750
24.900000	0.449332	0.000000	0.449332	2.063479 	0.004765
24.950000	0.446340	0.000000	0.446340	2.077470 	0.004781
25.000000	0.442870	0.000000	0.442870	2.093764 	0.004800
25.050000	0.440054	0.000000	0.440054	2.107028 	0.004815
25.100000	0.437226	0.000000	0.437226	2.120390 	0.004831
25.150000	0.434398	0.000000	0.434398	2.133797 	0.004847
25.200000	0.431574	0.000000	0.431574	2.147231 	0.004862
25.250000	0.428755	0.000000	0.428755	2.160682 	0.004878
25.300000	0.425943	0.000000	0.425943	2.174146 	0.004895
25.350000	0.423138	0.000000	0.423138	2.187619 	0.004911
25.400000	0.420341	0.000000	0.420341	2.201099 	0.004927
25.450000	0.417552	0.000000	0.417552	2.214584 	0.004943
25.500000	0.414772	0.000000	0.414772	2.228073 	0.004960
25.550000	0.412000	0.000000	0.412000	2.241565 	0.004977
25.600000	0.409237	0.000000	0.409237	2.255060 	0.004993
25.650000	0.406483	0.000000	0.406483	2.268556 	0.005010
25.700000	0.403738	0.000000	0.403738	2.282054 	0.005027
25.750000	0.401002	0.000000	0.401002	2.295553 	0.005044
25.800000	0.398275	0.000000	0.398275	2.309052 	0.005062
25.850000	0.395558	0.000000	0.395558	2.322552 	0.005079
25.900000	0.392850	0.000000	0.392850	2.336051 	0.005097
25.950000	0.390151	0.000000	0.390151	2.349551 	0.005114
26.000000	0.387461	0.000000	0.387461	2.363050 	0.005132
26.050000	0.384781	0.000000	0.384781	2.376549 	0.005150
26.100000	0.382110	0.000000	0.382110	2.390048 	0.005168
26.150000	0.379448	0.000000	0.379448	2.403545 	0.005186
26.200000	0.376796	0.000000	0.376796	2.417042 	0.005204
26.250000	0.374154	0.000000	0.374154	2.430538 	0.005222
26.300000	0.371521	0.000000	0.371521	2.444032 	0.005241
26.350000	0.368897	0.000000	0.368897	2.457526 	0.005259
26.400000	0.366283	0.000000	0.366283	2.471018 	0.005278
26.450000	0.363679	0.000000	0.363679	2.484509 	0.005297
26.500000	0.361084	0.000000	0.361084	2.497998 	0.005316
26.550000	0.358499	0.000000	0.358499	2.511486 	0.005335
26.600000	0.355923	0.000000	0.355923	2.524973 	0.005354
26.650000	0.353357	0.000000	0.353357	2.538457 	0.005374
26.700000	0.350800	0.000000	0.350800	2.551940 	0.005393
26.750000	0.348253	0.000000	0.348253	2.565421 	0.005413
26.800000	0.345715	0.000000	0.345715	2.578900 	0.005433