VARIABLES = X,Ksi,B,H,U,tau 
ZONE T="Time 5.000000", I=4400, DATAPACKING=POINT
-100.000000	-0.001504	-3.333333	3.331829	-0.041857 	0.000875
-99.975000	-0.002577	-3.332500	3.329923	-0.040024 	0.000875
-99.950000	-0.002108	-3.331667	3.329559	-0.040837 	0.000875
-99.925000	-0.002295	-3.330833	3.328538	-0.040524 	0.000875
-99.900000	-0.002203	-3.330000	3.327797	-0.040691 	0.000876
-99.875000	-0.002230	-3.329167	3.326937	-0.040653 	0.000876
-99.850000	-0.002206	-3.328333	3.326127	-0.040702 	0.000876
-99.825000	-0.002204	-3.327500	3.325296	-0.040715 	0.000876
-99.800000	-0.002192	-3.326667	3.324475	-0.040742 	0.000876
-99.775000	-0.002185	-3.325833	3.323648	-0.040764 	0.000876
-99.750000	-0.002176	-3.325000	3.322824	-0.040787 	0.000876
-99.725000	-0.002167	-3.324167	3.322000	-0.040810 	0.000876
-99.700000	-0.002158	-3.323333	3.321175	-0.040833 	0.000876
-99.675000	-0.002150	-3.322500	3.320350	-0.040856 	0.000877
-99.650000	-0.002141	-3.321667	3.319526	-0.040879 	0.000877
-99.625000	-0.002132	-3.320833	3.318701	-0.040902 	0.000877
-99.600000	-0.002123	-3.320000	3.317877	-0.040925 	0.000877
-99.575000	-0.002115	-3.319167	3.317052	-0.040948 	0.000877
-99.550000	-0.002106	-3.318333	3.316227	-0.040970 	0.000877
-99.525000	-0.002097	-3.317500	3.315403	-0.040993 	0.000877
-99.500000	-0.002088	-3.316667	3.314579	-0.041016 	0.000877
-99.475000	-0.002080	-3.315833	3.313753	-0.041038 	0.000877
-99.450000	-0.002071	-3.315000	3.312929	-0.041061 	0.000878
-99.425000	-0.002062	-3.314167	3.312105	-0.041084 	0.000878
-99.400000	-0.002053	-3.313333	3.311280	-0.041106 	0.000878
-99.375000	-0.002044	-3.312500	3.310456	-0.041129 	0.000878
-99.350000	-0.002036	-3.311667	3.309631	-0.041151 	0.000878
-99.325000	-0.002027	-3.310833	3.308806	-0.041174 	0.000878
-99.300000	-0.002018	-3.310000	3.307982	-0.041196 	0.000878
-99.275000	-0.002009	-3.309167	3.307158	-0.041218 	0.000878
-99.250000	-0.002000	-3.308333	3.306333	-0.041241 	0.000878
-99.225000	-0.001992	-3.307500	3.305508	-0.041263 	0.000878
-99.200000	-0.001983	-3.306667	3.304684	-0.041285 	0.000879
-99.175000	-0.001974	-3.305833	3.303859	-0.041307 	0.000879
-99.150000	-0.001965	-3.305000	3.303035	-0.041329 	0.000879
-99.125000	-0.001956	-3.304167	3.302211	-0.041351 	0.000879
-99.100000	-0.001947	-3.303333	3.301386	-0.041373 	0.000879
-99.075000	-0.001938	-3.302500	3.300562	-0.041395 	0.000879
-99.050000	-0.001929	-3.301667	3.299738	-0.041417 	0.000879
-99.025000	-0.001921	-3.300833	3.298912	-0.041439 	0.000879
-99.000000	-0.001912	-3.300000	3.298088	-0.041461 	0.000879
-98.975000	-0.001903	-3.299167	3.297264	-0.041483 	0.000880
-98.950000	-0.001894	-3.298333	3.296439	-0.041505 	0.000880
-98.925000	-0.001885	-3.297500	3.295615	-0.041527 	0.000880
-98.900000	-0.001876	-3.296667	3.294791	-0.041548 	0.000880
-98.875000	-0.001867	-3.295833	3.293966	-0.041570 	0.000880
-98.850000	-0.001858	-3.295000	3.293142	-0.041592 	0.000880
-98.825000	-0.001849	-3.294167	3.292318	-0.041613 	0.000880
-98.800000	-0.001840	-3.293333	3.291493	-0.041635 	0.000880
-98.775000	-0.001831	-3.292500	3.290669	-0.041656 	0.000880
-98.750000	-0.001822	-3.291667	3.289845	-0.041678 	0.000881
-98.725000	-0.001813	-3.290833	3.289020	-0.041699 	0.000881
-98.700000	-0.001805	-3.290000	3.288195	-0.041721 	0.000881
-98.675000	-0.001796	-3.289167	3.287371	-0.041742 	0.000881
-98.650000	-0.001787	-3.288333	3.286546	-0.041763 	0.000881
-98.625000	-0.001778	-3.287500	3.285722	-0.041785 	0.000881
-98.600000	-0.001769	-3.286667	3.284898	-0.041806 	0.000881
-98.575000	-0.001760	-3.285833	3.284073	-0.041827 	0.000881
-98.550000	-0.001751	-3.285000	3.283249	-0.041848 	0.000881
-98.525000	-0.001742	-3.284167	3.282425	-0.041869 	0.000882
-98.500000	-0.001733	-3.283333	3.281600	-0.041890 	0.000882
-98.475000	-0.001724	-3.282500	3.280776	-0.041911 	0.000882
-98.450000	-0.001715	-3.281667	3.279952	-0.041932 	0.000882
-98.425000	-0.001706	-3.280833	3.279127	-0.041953 	0.000882
-98.400000	-0.001697	-3.280000	3.278303	-0.041974 	0.000882
-98.375000	-0.001687	-3.279167	3.277480	-0.041995 	0.000882
-98.350000	-0.001678	-3.278333	3.276655	-0.042016 	0.000882
-98.325000	-0.001669	-3.277500	3.275831	-0.042037 	0.000882
-98.300000	-0.001660	-3.276667	3.275007	-0.042057 	0.000883
-98.275000	-0.001651	-3.275833	3.274182	-0.042078 	0.000883
-98.250000	-0.001642	-3.275000	3.273358	-0.042099 	0.000883
-98.225000	-0.001633	-3.274167	3.272534	-0.042119 	0.000883
-98.200000	-0.001624	-3.273333	3.271709	-0.042140 	0.000883
-98.175000	-0.001615	-3.272500	3.270885	-0.042160 	0.000883
-98.150000	-0.001606	-3.271667	3.270061	-0.042181 	0.000883
-98.125000	-0.001597	-3.270833	3.269236	-0.042201 	0.000883
-98.100000	-0.001588	-3.270000	3.268412	-0.042222 	0.000883
-98.075000	-0.001579	-3.269167	3.267588	-0.042242 	0.000884
-98.050000	-0.001569	-3.268333	3.266764	-0.042262 	0.000884
-98.025000	-0.001560	-3.267500	3.265940	-0.042282 	0.000884
-98.000000	-0.001551	-3.266667	3.265116	-0.042303 	0.000884
-97.975000	-0.001542	-3.265833	3.264291	-0.042323 	0.000884
-97.950000	-0.001533	-3.265000	3.263467	-0.042343 	0.000884
-97.925000	-0.001524	-3.264167	3.262643	-0.042363 	0.000884
-97.900000	-0.001515	-3.263333	3.261818	-0.042383 	0.000884
-97.875000	-0.001506	-3.262500	3.260994	-0.042403 	0.000884
-97.850000	-0.001496	-3.261667	3.260171	-0.042423 	0.000885
-97.825000	-0.001487	-3.260833	3.259346	-0.042443 	0.000885
-97.800000	-0.001478	-3.260000	3.258522	-0.042463 	0.000885
-97.775000	-0.001469	-3.259167	3.257698	-0.042483 	0.000885
-97.750000	-0.001460	-3.258333	3.256873	-0.042502 	0.000885
-97.725000	-0.001451	-3.257500	3.256049	-0.042522 	0.000885
-97.700000	-0.001441	-3.256667	3.255226	-0.042542 	0.000885
-97.675000	-0.001432	-3.255833	3.254401	-0.042562 	0.000885
-97.650000	-0.001423	-3.255000	3.253577	-0.042581 	0.000885
-97.625000	-0.001414	-3.254167	3.252753	-0.042601 	0.000886
-97.600000	-0.001405	-3.253333	3.251928	-0.042620 	0.000886
-97.575000	-0.001395	-3.252500	3.251105	-0.042640 	0.000886
-97.550000	-0.001386	-3.251667	3.250281	-0.042659 	0.000886
-97.525000	-0.001377	-3.250833	3.249456	-0.042679 	0.000886
-97.500000	-0.001368	-3.250000	3.248632	-0.042698 	0.000886
-97.475000	-0.001358	-3.249167	3.247809	-0.042717 	0.000886
-97.450000	-0.001349	-3.248333	3.246984	-0.042737 	0.000886
-97.425000	-0.001340	-3.247500	3.246160	-0.042756 	0.000886
-97.400000	-0.001331	-3.246667	3.245336	-0.042775 	0.000887
-97.375000	-0.001321	-3.245833	3.244512	-0.042794 	0.000887
-97.350000	-0.001312	-3.245000	3.243688	-0.042813 	0.000887
-97.325000	-0.001303	-3.244167	3.242864	-0.042832 	0.000887
-97.300000	-0.001294	-3.243333	3.242039	-0.042851 	0.000887
-97.275000	-0.001284	-3.242500	3.241216	-0.042870 	0.000887
-97.250000	-0.001275	-3.241667	3.240392	-0.042889 	0.000887
-97.225000	-0.001266	-3.240833	3.239567	-0.042908 	0.000887
-97.200000	-0.001257	-3.240000	3.238743	-0.042927 	0.000888
-97.175000	-0.001247	-3.239167	3.237920	-0.042946 	0.000888
-97.150000	-0.001238	-3.238333	3.237095	-0.042964 	0.000888
-97.125000	-0.001229	-3.237500	3.236271	-0.042983 	0.000888
-97.100000	-0.001219	-3.236667	3.235448	-0.043002 	0.000888
-97.075000	-0.001210	-3.235833	3.234623	-0.043020 	0.000888
-97.050000	-0.001201	-3.235000	3.233799	-0.043039 	0.000888
-97.025000	-0.001191	-3.234167	3.232976	-0.043057 	0.000888
-97.000000	-0.001182	-3.233333	3.232151	-0.043076 	0.000888
-96.975000	-0.001173	-3.232500	3.231327	-0.043094 	0.000889
-96.950000	-0.001163	-3.231667	3.230504	-0.043113 	0.000889
-96.925000	-0.001154	-3.230833	3.229679	-0.043131 	0.000889
-96.900000	-0.001145	-3.230000	3.228855	-0.043149 	0.000889
-96.875000	-0.001135	-3.229167	3.228032	-0.043167 	0.000889
-96.850000	-0.001126	-3.228333	3.227207	-0.043186 	0.000889
-96.825000	-0.001116	-3.227500	3.226384	-0.043204 	0.000889
-96.800000	-0.001107	-3.226667	3.225560	-0.043222 	0.000889
-96.775000	-0.001098	-3.225833	3.224735	-0.043240 	0.000889
-96.750000	-0.001088	-3.225000	3.223912	-0.043258 	0.000890
-96.725000	-0.001079	-3.224167	3.223088	-0.043276 	0.000890
-96.700000	-0.001070	-3.223333	3.222263	-0.043294 	0.000890
-96.675000	-0.001060	-3.222500	3.221440	-0.043312 	0.000890
-96.650000	-0.001051	-3.221667	3.220616	-0.043329 	0.000890
-96.625000	-0.001041	-3.220833	3.219792	-0.043347 	0.000890
-96.600000	-0.001032	-3.220000	3.218968	-0.043365 	0.000890
-96.575000	-0.001023	-3.219167	3.218144	-0.043383 	0.000890
-96.550000	-0.001013	-3.218333	3.217320	-0.043400 	0.000890
-96.525000	-0.001004	-3.217500	3.216496	-0.043418 	0.000891
-96.500000	-0.000994	-3.216667	3.215673	-0.043435 	0.000891
-96.475000	-0.000985	-3.215833	3.214848	-0.043453 	0.000891
-96.450000	-0.000975	-3.215000	3.214025	-0.043470 	0.000891
-96.425000	-0.000966	-3.214167	3.213201	-0.043488 	0.000891
-96.400000	-0.000956	-3.213333	3.212377	-0.043505 	0.000891
-96.375000	-0.000947	-3.212500	3.211553	-0.043523 	0.000891
-96.350000	-0.000938	-3.211667	3.210729	-0.043540 	0.000891
-96.325000	-0.000928	-3.210833	3.209905	-0.043557 	0.000891
-96.300000	-0.000919	-3.210000	3.209081	-0.043574 	0.000892
-96.275000	-0.000909	-3.209167	3.208258	-0.043591 	0.000892
-96.250000	-0.000900	-3.208333	3.207433	-0.043608 	0.000892
-96.225000	-0.000890	-3.207500	3.206610	-0.043625 	0.000892
-96.200000	-0.000881	-3.206667	3.205786	-0.043642 	0.000892
-96.175000	-0.000871	-3.205833	3.204962	-0.043659 	0.000892
-96.150000	-0.000862	-3.205000	3.204138	-0.043676 	0.000892
-96.125000	-0.000852	-3.204167	3.203315	-0.043693 	0.000892
-96.100000	-0.000843	-3.203333	3.202490	-0.043710 	0.000893
-96.075000	-0.000833	-3.202500	3.201667	-0.043727 	0.000893
-96.050000	-0.000824	-3.201667	3.200843	-0.043743 	0.000893
-96.025000	-0.000814	-3.200833	3.200019	-0.043760 	0.000893
-96.000000	-0.000805	-3.200000	3.199195	-0.043777 	0.000893
-95.975000	-0.000795	-3.199167	3.198372	-0.043793 	0.000893
-95.950000	-0.000785	-3.198333	3.197548	-0.043810 	0.000893
-95.925000	-0.000776	-3.197500	3.196724	-0.043826 	0.000893
-95.900000	-0.000766	-3.196667	3.195901	-0.043843 	0.000893
-95.875000	-0.000757	-3.195833	3.195076	-0.043859 	0.000894
-95.850000	-0.000747	-3.195000	3.194253	-0.043875 	0.000894
-95.825000	-0.000738	-3.194167	3.193429	-0.043892 	0.000894
-95.800000	-0.000728	-3.193333	3.192605	-0.043908 	0.000894
-95.775000	-0.000719	-3.192500	3.191781	-0.043924 	0.000894
-95.750000	-0.000709	-3.191667	3.190958	-0.043940 	0.000894
-95.725000	-0.000699	-3.190833	3.190134	-0.043956 	0.000894
-95.700000	-0.000690	-3.190000	3.189310	-0.043973 	0.000894
-95.675000	-0.000680	-3.189167	3.188487	-0.043989 	0.000894
-95.650000	-0.000671	-3.188333	3.187662	-0.044004 	0.000895
-95.625000	-0.000661	-3.187500	3.186839	-0.044020 	0.000895
-95.600000	-0.000651	-3.186667	3.186016	-0.044036 	0.000895
-95.575000	-0.000642	-3.185833	3.185191	-0.044052 	0.000895
-95.550000	-0.000632	-3.185000	3.184368	-0.044068 	0.000895
-95.525000	-0.000623	-3.184167	3.183544	-0.044084 	0.000895
-95.500000	-0.000613	-3.183333	3.182720	-0.044099 	0.000895
-95.475000	-0.000603	-3.182500	3.181897	-0.044115 	0.000895
-95.450000	-0.000594	-3.181667	3.181073	-0.044130 	0.000896
-95.425000	-0.000584	-3.180833	3.180249	-0.044146 	0.000896
-95.400000	-0.000574	-3.180000	3.179426	-0.044161 	0.000896
-95.375000	-0.000565	-3.179167	3.178602	-0.044177 	0.000896
-95.350000	-0.000555	-3.178333	3.177778	-0.044192 	0.000896
-95.325000	-0.000546	-3.177500	3.176954	-0.044207 	0.000896
-95.300000	-0.000536	-3.176667	3.176131	-0.044223 	0.000896
-95.275000	-0.000526	-3.175833	3.175307	-0.044238 	0.000896
-95.250000	-0.000517	-3.175000	3.174483	-0.044253 	0.000896
-95.225000	-0.000507	-3.174167	3.173660	-0.044268 	0.000897
-95.200000	-0.000497	-3.173333	3.172836	-0.044283 	0.000897
-95.175000	-0.000488	-3.172500	3.172012	-0.044298 	0.000897
-95.150000	-0.000478	-3.171667	3.171189	-0.044313 	0.000897
-95.125000	-0.000468	-3.170833	3.170365	-0.044328 	0.000897
-95.100000	-0.000459	-3.170000	3.169541	-0.044343 	0.000897
-95.075000	-0.000449	-3.169167	3.168718	-0.044358 	0.000897
-95.050000	-0.000439	-3.168333	3.167894	-0.044373 	0.000897
-95.025000	-0.000429	-3.167500	3.167071	-0.044388 	0.000897
-95.000000	-0.000420	-3.166667	3.166247	-0.044402 	0.000898
-94.975000	-0.000410	-3.165833	3.165423	-0.044417 	0.000898
-94.950000	-0.000400	-3.165000	3.164600	-0.044431 	0.000898
-94.925000	-0.000391	-3.164167	3.163776	-0.044446 	0.000898
-94.900000	-0.000381	-3.163333	3.162952	-0.044460 	0.000898
-94.875000	-0.000371	-3.162500	3.162129	-0.044475 	0.000898
-94.850000	-0.000361	-3.161667	3.161306	-0.044489 	0.000898
-94.825000	-0.000352	-3.160833	3.160481	-0.044504 	0.000898
-94.800000	-0.000342	-3.160000	3.159658	-0.044518 	0.000899
-94.775000	-0.000332	-3.159167	3.158835	-0.044532 	0.000899
-94.750000	-0.000322	-3.158333	3.158011	-0.044546 	0.000899
-94.725000	-0.000313	-3.157500	3.157187	-0.044561 	0.000899
-94.700000	-0.000303	-3.156667	3.156364	-0.044575 	0.000899
-94.675000	-0.000293	-3.155833	3.155540	-0.044589 	0.000899
-94.650000	-0.000283	-3.155000	3.154717	-0.044603 	0.000899
-94.625000	-0.000274	-3.154167	3.153893	-0.044617 	0.000899
-94.600000	-0.000264	-3.153333	3.153069	-0.044631 	0.000899
-94.575000	-0.000254	-3.152500	3.152246	-0.044644 	0.000900
-94.550000	-0.000244	-3.151667	3.151423	-0.044658 	0.000900
-94.525000	-0.000235	-3.150833	3.150598	-0.044672 	0.000900
-94.500000	-0.000225	-3.150000	3.149775	-0.044686 	0.000900
-94.475000	-0.000215	-3.149167	3.148952	-0.044699 	0.000900
-94.450000	-0.000205	-3.148333	3.148128	-0.044713 	0.000900
-94.425000	-0.000195	-3.147500	3.147305	-0.044726 	0.000900
-94.400000	-0.000186	-3.146667	3.146481	-0.044740 	0.000900
-94.375000	-0.000176	-3.145833	3.145657	-0.044753 	0.000901
-94.350000	-0.000166	-3.145000	3.144834	-0.044767 	0.000901
-94.325000	-0.000156	-3.144167	3.144011	-0.044780 	0.000901
-94.300000	-0.000146	-3.143333	3.143187	-0.044793 	0.000901
-94.275000	-0.000137	-3.142500	3.142363	-0.044807 	0.000901
-94.250000	-0.000127	-3.141667	3.141540	-0.044820 	0.000901
-94.225000	-0.000117	-3.140833	3.140716	-0.044833 	0.000901
-94.200000	-0.000107	-3.140000	3.139893	-0.044846 	0.000901
-94.175000	-0.000097	-3.139167	3.139070	-0.044859 	0.000901
-94.150000	-0.000087	-3.138333	3.138246	-0.044872 	0.000902
-94.125000	-0.000078	-3.137500	3.137422	-0.044885 	0.000902
-94.100000	-0.000068	-3.136667	3.136599	-0.044898 	0.000902
-94.075000	-0.000058	-3.135833	3.135775	-0.044911 	0.000902
-94.050000	-0.000048	-3.135000	3.134952	-0.044923 	0.000902
-94.025000	-0.000038	-3.134167	3.134129	-0.044936 	0.000902
-94.000000	-0.000028	-3.133333	3.133305	-0.044949 	0.000902
-93.975000	-0.000018	-3.132500	3.132482	-0.044961 	0.000902
-93.950000	-0.000009	-3.131667	3.131658	-0.044974 	0.000903
-93.925000	0.000001	-3.130833	3.130834	-0.044986 	0.000903
-93.900000	0.000011	-3.130000	3.130011	-0.044999 	0.000903
-93.875000	0.000021	-3.129167	3.129188	-0.045011 	0.000903
-93.850000	0.000031	-3.128333	3.128364	-0.045024 	0.000903
-93.825000	0.000041	-3.127500	3.127541	-0.045036 	0.000903
-93.800000	0.000051	-3.126667	3.126718	-0.045048 	0.000903
-93.775000	0.000061	-3.125833	3.125894	-0.045060 	0.000903
-93.750000	0.000070	-3.125000	3.125070	-0.045073 	0.000903
-93.725000	0.000080	-3.124167	3.124247	-0.045085 	0.000904
-93.700000	0.000090	-3.123333	3.123423	-0.045097 	0.000904
-93.675000	0.000100	-3.122500	3.122600	-0.045109 	0.000904
-93.650000	0.000110	-3.121667	3.121777	-0.045121 	0.000904
-93.625000	0.000120	-3.120833	3.120953	-0.045132 	0.000904
-93.600000	0.000130	-3.120000	3.120130	-0.045144 	0.000904
-93.575000	0.000140	-3.119167	3.119307	-0.045156 	0.000904
-93.550000	0.000150	-3.118333	3.118483	-0.045168 	0.000904
-93.525000	0.000160	-3.117500	3.117660	-0.045180 	0.000905
-93.500000	0.000170	-3.116667	3.116837	-0.045191 	0.000905
-93.475000	0.000180	-3.115833	3.116013	-0.045203 	0.000905
-93.450000	0.000189	-3.115000	3.115189	-0.045214 	0.000905
-93.425000	0.000199	-3.114167	3.114366	-0.045226 	0.000905
-93.400000	0.000209	-3.113333	3.113542	-0.045237 	0.000905
-93.375000	0.000219	-3.112500	3.112719	-0.045248 	0.000905
-93.350000	0.000229	-3.111667	3.111896	-0.045260 	0.000905
-93.325000	0.000239	-3.110833	3.111072	-0.045271 	0.000906
-93.300000	0.000249	-3.110000	3.110249	-0.045282 	0.000906
-93.275000	0.000259	-3.109167	3.109426	-0.045293 	0.000906
-93.250000	0.000269	-3.108333	3.108602	-0.045304 	0.000906
-93.225000	0.000279	-3.107500	3.107779	-0.045316 	0.000906
-93.200000	0.000289	-3.106667	3.106956	-0.045327 	0.000906
-93.175000	0.000299	-3.105833	3.106132	-0.045337 	0.000906
-93.150000	0.000309	-3.105000	3.105309	-0.045348 	0.000906
-93.125000	0.000319	-3.104167	3.104486	-0.045359 	0.000906
-93.100000	0.000329	-3.103333	3.103662	-0.045370 	0.000907
-93.075000	0.000339	-3.102500	3.102839	-0.045381 	0.000907
-93.050000	0.000349	-3.101667	3.102016	-0.045391 	0.000907
-93.025000	0.000359	-3.100833	3.101192	-0.045402 	0.000907
-93.000000	0.000369	-3.100000	3.100369	-0.045412 	0.000907
-92.975000	0.000379	-3.099167	3.099546	-0.045423 	0.000907
-92.950000	0.000389	-3.098333	3.098722	-0.045433 	0.000907
-92.925000	0.000399	-3.097500	3.097899	-0.045444 	0.000907
-92.900000	0.000409	-3.096667	3.097076	-0.045454 	0.000908
-92.875000	0.000419	-3.095833	3.096252	-0.045464 	0.000908
-92.850000	0.000429	-3.095000	3.095429	-0.045475 	0.000908
-92.825000	0.000439	-3.094167	3.094606	-0.045485 	0.000908
-92.800000	0.000449	-3.093333	3.093782	-0.045495 	0.000908
-92.775000	0.000459	-3.092500	3.092959	-0.045505 	0.000908
-92.750000	0.000469	-3.091667	3.092136	-0.045515 	0.000908
-92.725000	0.000479	-3.090833	3.091312	-0.045525 	0.000908
-92.700000	0.000489	-3.090000	3.090489	-0.045535 	0.000909
-92.675000	0.000499	-3.089167	3.089666	-0.045545 	0.000909
-92.650000	0.000509	-3.088333	3.088842	-0.045555 	0.000909
-92.625000	0.000519	-3.087500	3.088019	-0.045564 	0.000909
-92.600000	0.000529	-3.086667	3.087196	-0.045574 	0.000909
-92.575000	0.000539	-3.085833	3.086372	-0.045584 	0.000909
-92.550000	0.000549	-3.085000	3.085549	-0.045593 	0.000909
-92.525000	0.000559	-3.084167	3.084726	-0.045603 	0.000909
-92.500000	0.000569	-3.083333	3.083902	-0.045612 	0.000910
-92.475000	0.000579	-3.082500	3.083079	-0.045622 	0.000910
-92.450000	0.000589	-3.081667	3.082256	-0.045631 	0.000910
-92.425000	0.000599	-3.080833	3.081432	-0.045640 	0.000910
-92.400000	0.000609	-3.080000	3.080609	-0.045650 	0.000910
-92.375000	0.000619	-3.079167	3.079786	-0.045659 	0.000910
-92.350000	0.000630	-3.078333	3.078963	-0.045668 	0.000910
-92.325000	0.000640	-3.077500	3.078140	-0.045677 	0.000910
-92.300000	0.000650	-3.076667	3.077317	-0.045686 	0.000910
-92.275000	0.000660	-3.075833	3.076493	-0.045695 	0.000911
-92.250000	0.000670	-3.075000	3.075670	-0.045704 	0.000911
-92.225000	0.000680	-3.074167	3.074847	-0.045713 	0.000911
-92.200000	0.000690	-3.073333	3.074023	-0.045722 	0.000911
-92.175000	0.000700	-3.072500	3.073200	-0.045730 	0.000911
-92.150000	0.000710	-3.071667	3.072377	-0.045739 	0.000911
-92.125000	0.000720	-3.070833	3.071553	-0.045748 	0.000911
-92.100000	0.000730	-3.070000	3.070730	-0.045756 	0.000911
-92.075000	0.000740	-3.069167	3.069907	-0.045765 	0.000912
-92.050000	0.000750	-3.068333	3.069083	-0.045773 	0.000912
-92.025000	0.000761	-3.067500	3.068261	-0.045782 	0.000912
-92.000000	0.000771	-3.066667	3.067438	-0.045790 	0.000912
-91.975000	0.000781	-3.065833	3.066614	-0.045799 	0.000912
-91.950000	0.000791	-3.065000	3.065791	-0.045807 	0.000912
-91.925000	0.000801	-3.064167	3.064968	-0.045815 	0.000912
-91.900000	0.000811	-3.063333	3.064144	-0.045823 	0.000912
-91.875000	0.000821	-3.062500	3.063321	-0.045831 	0.000913
-91.850000	0.000831	-3.061667	3.062498	-0.045839 	0.000913
-91.825000	0.000841	-3.060833	3.061674	-0.045847 	0.000913
-91.800000	0.000852	-3.060000	3.060852	-0.045855 	0.000913
-91.775000	0.000862	-3.059167	3.060029	-0.045863 	0.000913
-91.750000	0.000872	-3.058333	3.059205	-0.045871 	0.000913
-91.725000	0.000882	-3.057500	3.058382	-0.045879 	0.000913
-91.700000	0.000892	-3.056667	3.057559	-0.045886 	0.000913
-91.675000	0.000902	-3.055833	3.056735	-0.045894 	0.000914
-91.650000	0.000912	-3.055000	3.055912	-0.045901 	0.000914
-91.625000	0.000922	-3.054167	3.055089	-0.045909 	0.000914
-91.600000	0.000933	-3.053333	3.054266	-0.045916 	0.000914
-91.575000	0.000943	-3.052500	3.053443	-0.045924 	0.000914
-91.550000	0.000953	-3.051667	3.052620	-0.045931 	0.000914
-91.525000	0.000963	-3.050833	3.051796	-0.045938 	0.000914
-91.500000	0.000973	-3.050000	3.050973	-0.045946 	0.000914
-91.475000	0.000983	-3.049167	3.050150	-0.045953 	0.000915
-91.450000	0.000993	-3.048333	3.049326	-0.045960 	0.000915
-91.425000	0.001004	-3.047500	3.048504	-0.045967 	0.000915
-91.400000	0.001014	-3.046667	3.047681	-0.045974 	0.000915
-91.375000	0.001024	-3.045833	3.046857	-0.045981 	0.000915
-91.350000	0.001034	-3.045000	3.046034	-0.045988 	0.000915
-91.325000	0.001044	-3.044167	3.045211	-0.045995 	0.000915
-91.300000	0.001054	-3.043333	3.044387	-0.046001 	0.000915
-91.275000	0.001064	-3.042500	3.043564	-0.046008 	0.000916
-91.250000	0.001075	-3.041667	3.042742	-0.046015 	0.000916
-91.225000	0.001085	-3.040833	3.041918	-0.046021 	0.000916
-91.200000	0.001095	-3.040000	3.041095	-0.046028 	0.000916
-91.175000	0.001105	-3.039167	3.040272	-0.046034 	0.000916
-91.150000	0.001115	-3.038333	3.039448	-0.046041 	0.000916
-91.125000	0.001125	-3.037500	3.038625	-0.046047 	0.000916
-91.100000	0.001136	-3.036667	3.037803	-0.046054 	0.000916
-91.075000	0.001146	-3.035833	3.036979	-0.046060 	0.000917
-91.050000	0.001156	-3.035000	3.036156	-0.046066 	0.000917
-91.025000	0.001166	-3.034167	3.035333	-0.046072 	0.000917
-91.000000	0.001176	-3.033333	3.034509	-0.046078 	0.000917
-90.975000	0.001187	-3.032500	3.033687	-0.046084 	0.000917
-90.950000	0.001197	-3.031667	3.032864	-0.046090 	0.000917
-90.925000	0.001207	-3.030833	3.032040	-0.046096 	0.000917
-90.900000	0.001217	-3.030000	3.031217	-0.046102 	0.000917
-90.875000	0.001227	-3.029167	3.030394	-0.046108 	0.000918
-90.850000	0.001237	-3.028333	3.029570	-0.046113 	0.000918
-90.825000	0.001248	-3.027500	3.028748	-0.046119 	0.000918
-90.800000	0.001258	-3.026667	3.027925	-0.046125 	0.000918
-90.775000	0.001268	-3.025833	3.027101	-0.046130 	0.000918
-90.750000	0.001278	-3.025000	3.026278	-0.046136 	0.000918
-90.725000	0.001288	-3.024167	3.025455	-0.046141 	0.000918
-90.700000	0.001299	-3.023333	3.024632	-0.046147 	0.000918
-90.675000	0.001309	-3.022500	3.023809	-0.046152 	0.000919
-90.650000	0.001319	-3.021667	3.022986	-0.046157 	0.000919
-90.625000	0.001329	-3.020833	3.022162	-0.046162 	0.000919
-90.600000	0.001339	-3.020000	3.021339	-0.046168 	0.000919
-90.575000	0.001350	-3.019167	3.020517	-0.046173 	0.000919
-90.550000	0.001360	-3.018333	3.019693	-0.046178 	0.000919
-90.525000	0.001370	-3.017500	3.018870	-0.046183 	0.000919
-90.500000	0.001380	-3.016667	3.018047	-0.046187 	0.000919
-90.475000	0.001391	-3.015833	3.017224	-0.046192 	0.000920
-90.450000	0.001401	-3.015000	3.016401	-0.046197 	0.000920
-90.425000	0.001411	-3.014167	3.015578	-0.046202 	0.000920
-90.400000	0.001421	-3.013333	3.014754	-0.046207 	0.000920
-90.375000	0.001431	-3.012500	3.013931	-0.046211 	0.000920
-90.350000	0.001442	-3.011667	3.013109	-0.046216 	0.000920
-90.325000	0.001452	-3.010833	3.012285	-0.046220 	0.000920
-90.300000	0.001462	-3.010000	3.011462	-0.046225 	0.000920
-90.275000	0.001472	-3.009167	3.010639	-0.046229 	0.000921
-90.250000	0.001483	-3.008333	3.009816	-0.046233 	0.000921
-90.225000	0.001493	-3.007500	3.008993	-0.046237 	0.000921
-90.200000	0.001503	-3.006667	3.008170	-0.046242 	0.000921
-90.175000	0.001513	-3.005833	3.007346	-0.046246 	0.000921
-90.150000	0.001523	-3.005000	3.006523	-0.046250 	0.000921
-90.125000	0.001534	-3.004167	3.005701	-0.046254 	0.000921
-90.100000	0.001544	-3.003333	3.004877	-0.046258 	0.000921
-90.075000	0.001554	-3.002500	3.004054	-0.046262 	0.000922
-90.050000	0.001564	-3.001667	3.003231	-0.046266 	0.000922
-90.025000	0.001575	-3.000833	3.002408	-0.046269 	0.000922
-90.000000	0.001585	-3.000000	3.001585	-0.046273 	0.000922
-89.975000	0.001595	-2.999167	3.000762	-0.046277 	0.000922
-89.950000	0.001605	-2.998333	2.999938	-0.046280 	0.000922
-89.925000	0.001616	-2.997500	2.999116	-0.046284 	0.000922
-89.900000	0.001626	-2.996667	2.998293	-0.046287 	0.000922
-89.875000	0.001636	-2.995833	2.997469	-0.046291 	0.000923
-89.850000	0.001646	-2.995000	2.996646	-0.046294 	0.000923
-89.825000	0.001657	-2.994167	2.995824	-0.046297 	0.000923
-89.800000	0.001667	-2.993333	2.995000	-0.046300 	0.000923
-89.775000	0.001677	-2.992500	2.994177	-0.046304 	0.000923
-89.750000	0.001687	-2.991667	2.993354	-0.046307 	0.000923
-89.725000	0.001697	-2.990833	2.992530	-0.046310 	0.000923
-89.700000	0.001708	-2.990000	2.991708	-0.046313 	0.000923
-89.675000	0.001718	-2.989167	2.990885	-0.046316 	0.000924
-89.650000	0.001728	-2.988333	2.990061	-0.046319 	0.000924
-89.625000	0.001738	-2.987500	2.989238	-0.046321 	0.000924
-89.600000	0.001749	-2.986667	2.988416	-0.046324 	0.000924
-89.575000	0.001759	-2.985833	2.987592	-0.046327 	0.000924
-89.550000	0.001769	-2.985000	2.986769	-0.046329 	0.000924
-89.525000	0.001779	-2.984167	2.985946	-0.046332 	0.000924
-89.500000	0.001790	-2.983333	2.985123	-0.046334 	0.000924
-89.475000	0.001800	-2.982500	2.984300	-0.046337 	0.000925
-89.450000	0.001810	-2.981667	2.983477	-0.046339 	0.000925
-89.425000	0.001821	-2.980833	2.982654	-0.046342 	0.000925
-89.400000	0.001831	-2.980000	2.981831	-0.046344 	0.000925
-89.375000	0.001841	-2.979167	2.981008	-0.046346 	0.000925
-89.350000	0.001851	-2.978333	2.980184	-0.046348 	0.000925
-89.325000	0.001862	-2.977500	2.979362	-0.046350 	0.000925
-89.300000	0.001872	-2.976667	2.978539	-0.046352 	0.000925
-89.275000	0.001882	-2.975833	2.977715	-0.046354 	0.000926
-89.250000	0.001892	-2.975000	2.976892	-0.046356 	0.000926
-89.225000	0.001903	-2.974167	2.976070	-0.046358 	0.000926
-89.200000	0.001913	-2.973333	2.975246	-0.046359 	0.000926
-89.175000	0.001923	-2.972500	2.974423	-0.046361 	0.000926
-89.150000	0.001933	-2.971667	2.973600	-0.046363 	0.000926
-89.125000	0.001944	-2.970833	2.972777	-0.046364 	0.000926
-89.100000	0.001954	-2.970000	2.971954	-0.046366 	0.000926
-89.075000	0.001964	-2.969167	2.971131	-0.046367 	0.000927
-89.050000	0.001974	-2.968333	2.970307	-0.046369 	0.000927
-89.025000	0.001985	-2.967500	2.969485	-0.046370 	0.000927
-89.000000	0.001995	-2.966667	2.968662	-0.046371 	0.000927
-88.975000	0.002005	-2.965833	2.967838	-0.046372 	0.000927
-88.950000	0.002015	-2.965000	2.967015	-0.046374 	0.000927
-88.925000	0.002026	-2.964167	2.966193	-0.046375 	0.000927
-88.900000	0.002036	-2.963333	2.965369	-0.046376 	0.000928
-88.875000	0.002046	-2.962500	2.964546	-0.046377 	0.000928
-88.850000	0.002057	-2.961667	2.963724	-0.046377 	0.000928
-88.825000	0.002067	-2.960833	2.962900	-0.046378 	0.000928
-88.800000	0.002077	-2.960000	2.962077	-0.046379 	0.000928
-88.775000	0.002087	-2.959167	2.961254	-0.046380 	0.000928
-88.750000	0.002098	-2.958333	2.960431	-0.046380 	0.000928
-88.725000	0.002108	-2.957500	2.959608	-0.046381 	0.000928
-88.700000	0.002118	-2.956667	2.958785	-0.046381 	0.000929
-88.675000	0.002128	-2.955833	2.957961	-0.046382 	0.000929
-88.650000	0.002139	-2.955000	2.957139	-0.046382 	0.000929
-88.625000	0.002149	-2.954167	2.956316	-0.046382 	0.000929
-88.600000	0.002159	-2.953333	2.955492	-0.046383 	0.000929
-88.575000	0.002170	-2.952500	2.954670	-0.046383 	0.000929
-88.550000	0.002180	-2.951667	2.953847	-0.046383 	0.000929
-88.525000	0.002190	-2.950833	2.953023	-0.046383 	0.000929
-88.500000	0.002200	-2.950000	2.952200	-0.046383 	0.000930
-88.475000	0.002211	-2.949167	2.951378	-0.046383 	0.000930
-88.450000	0.002221	-2.948333	2.950554	-0.046383 	0.000930
-88.425000	0.002231	-2.947500	2.949731	-0.046382 	0.000930
-88.400000	0.002241	-2.946667	2.948908	-0.046382 	0.000930
-88.375000	0.002252	-2.945833	2.948085	-0.046382 	0.000930
-88.350000	0.002262	-2.945000	2.947262	-0.046381 	0.000930
-88.325000	0.002272	-2.944167	2.946439	-0.046381 	0.000930
-88.300000	0.002283	-2.943333	2.945616	-0.046381 	0.000931
-88.275000	0.002293	-2.942500	2.944793	-0.046380 	0.000931
-88.250000	0.002303	-2.941667	2.943970	-0.046379 	0.000931
-88.225000	0.002313	-2.940833	2.943146	-0.046379 	0.000931
-88.200000	0.002324	-2.940000	2.942324	-0.046378 	0.000931
-88.175000	0.002334	-2.939167	2.941501	-0.046377 	0.000931
-88.150000	0.002344	-2.938333	2.940677	-0.046376 	0.000931
-88.125000	0.002354	-2.937500	2.939854	-0.046375 	0.000932
-88.100000	0.002365	-2.936667	2.939032	-0.046374 	0.000932
-88.075000	0.002375	-2.935833	2.938208	-0.046373 	0.000932
-88.050000	0.002385	-2.935000	2.937385	-0.046372 	0.000932
-88.025000	0.002395	-2.934167	2.936562	-0.046370 	0.000932
-88.000000	0.002406	-2.933333	2.935739	-0.046369 	0.000932
-87.975000	0.002416	-2.932500	2.934916	-0.046368 	0.000932
-87.950000	0.002426	-2.931667	2.934093	-0.046366 	0.000932
-87.925000	0.002437	-2.930833	2.933270	-0.046365 	0.000933
-87.900000	0.002447	-2.930000	2.932447	-0.046363 	0.000933
-87.875000	0.002457	-2.929167	2.931624	-0.046362 	0.000933
-87.850000	0.002467	-2.928333	2.930800	-0.046360 	0.000933
-87.825000	0.002478	-2.927500	2.929978	-0.046358 	0.000933
-87.800000	0.002488	-2.926667	2.929155	-0.046356 	0.000933
-87.775000	0.002498	-2.925833	2.928331	-0.046355 	0.000933
-87.750000	0.002508	-2.925000	2.927508	-0.046353 	0.000933
-87.725000	0.002519	-2.924167	2.926686	-0.046351 	0.000934
-87.700000	0.002529	-2.923333	2.925862	-0.046349 	0.000934
-87.675000	0.002539	-2.922500	2.925039	-0.046346 	0.000934
-87.650000	0.002549	-2.921667	2.924216	-0.046344 	0.000934
-87.625000	0.002560	-2.920833	2.923393	-0.046342 	0.000934
-87.600000	0.002570	-2.920000	2.922570	-0.046340 	0.000934
-87.575000	0.002580	-2.919167	2.921747	-0.046337 	0.000934
-87.550000	0.002590	-2.918333	2.920923	-0.046335 	0.000935
-87.525000	0.002601	-2.917500	2.920101	-0.046332 	0.000935
-87.500000	0.002611	-2.916667	2.919278	-0.046330 	0.000935
-87.475000	0.002621	-2.915833	2.918454	-0.046327 	0.000935
-87.450000	0.002631	-2.915000	2.917631	-0.046324 	0.000935