VARIABLES = X,Ksi,B,H,U,tau 
ZONE T="Time 30.000000", I=4400, DATAPACKING=POINT
-100.000000	-0.000800	-3.333333	3.332533	-0.042956 	0.000875
-99.975000	-0.001753	-3.332500	3.330747	-0.041337 	0.000875
-99.950000	-0.001339	-3.331667	3.330328	-0.042060 	0.000875
-99.925000	-0.001507	-3.330833	3.329326	-0.041787 	0.000875
-99.900000	-0.001427	-3.330000	3.328573	-0.041937 	0.000875
-99.875000	-0.001453	-3.329167	3.327714	-0.041908 	0.000876
-99.850000	-0.001434	-3.328333	3.326899	-0.041955 	0.000876
-99.825000	-0.001434	-3.327500	3.326066	-0.041969 	0.000876
-99.800000	-0.001425	-3.326667	3.325242	-0.041997 	0.000876
-99.775000	-0.001421	-3.325833	3.324412	-0.042019 	0.000876
-99.750000	-0.001414	-3.325000	3.323586	-0.042044 	0.000876
-99.725000	-0.001409	-3.324167	3.322758	-0.042067 	0.000876
-99.700000	-0.001403	-3.323333	3.321930	-0.042091 	0.000876
-99.675000	-0.001397	-3.322500	3.321103	-0.042115 	0.000876
-99.650000	-0.001391	-3.321667	3.320276	-0.042139 	0.000877
-99.625000	-0.001385	-3.320833	3.319448	-0.042163 	0.000877
-99.600000	-0.001380	-3.320000	3.318620	-0.042186 	0.000877
-99.575000	-0.001374	-3.319167	3.317793	-0.042210 	0.000877
-99.550000	-0.001368	-3.318333	3.316965	-0.042234 	0.000877
-99.525000	-0.001362	-3.317500	3.316138	-0.042257 	0.000877
-99.500000	-0.001356	-3.316667	3.315311	-0.042280 	0.000877
-99.475000	-0.001350	-3.315833	3.314483	-0.042304 	0.000877
-99.450000	-0.001344	-3.315000	3.313656	-0.042327 	0.000877
-99.425000	-0.001338	-3.314167	3.312829	-0.042351 	0.000878
-99.400000	-0.001333	-3.313333	3.312000	-0.042374 	0.000878
-99.375000	-0.001327	-3.312500	3.311173	-0.042397 	0.000878
-99.350000	-0.001321	-3.311667	3.310346	-0.042420 	0.000878
-99.325000	-0.001315	-3.310833	3.309518	-0.042444 	0.000878
-99.300000	-0.001309	-3.310000	3.308691	-0.042467 	0.000878
-99.275000	-0.001303	-3.309167	3.307864	-0.042490 	0.000878
-99.250000	-0.001297	-3.308333	3.307036	-0.042513 	0.000878
-99.225000	-0.001291	-3.307500	3.306209	-0.042536 	0.000878
-99.200000	-0.001286	-3.306667	3.305381	-0.042559 	0.000879
-99.175000	-0.001280	-3.305833	3.304553	-0.042582 	0.000879
-99.150000	-0.001274	-3.305000	3.303726	-0.042605 	0.000879
-99.125000	-0.001268	-3.304167	3.302899	-0.042628 	0.000879
-99.100000	-0.001262	-3.303333	3.302071	-0.042651 	0.000879
-99.075000	-0.001256	-3.302500	3.301244	-0.042674 	0.000879
-99.050000	-0.001250	-3.301667	3.300417	-0.042696 	0.000879
-99.025000	-0.001244	-3.300833	3.299589	-0.042719 	0.000879
-99.000000	-0.001238	-3.300000	3.298762	-0.042742 	0.000879
-98.975000	-0.001232	-3.299167	3.297935	-0.042764 	0.000880
-98.950000	-0.001226	-3.298333	3.297107	-0.042787 	0.000880
-98.925000	-0.001220	-3.297500	3.296280	-0.042809 	0.000880
-98.900000	-0.001214	-3.296667	3.295453	-0.042832 	0.000880
-98.875000	-0.001208	-3.295833	3.294625	-0.042854 	0.000880
-98.850000	-0.001202	-3.295000	3.293798	-0.042877 	0.000880
-98.825000	-0.001196	-3.294167	3.292971	-0.042899 	0.000880
-98.800000	-0.001190	-3.293333	3.292143	-0.042921 	0.000880
-98.775000	-0.001184	-3.292500	3.291316	-0.042944 	0.000880
-98.750000	-0.001178	-3.291667	3.290489	-0.042966 	0.000880
-98.725000	-0.001172	-3.290833	3.289661	-0.042988 	0.000881
-98.700000	-0.001166	-3.290000	3.288834	-0.043010 	0.000881
-98.675000	-0.001160	-3.289167	3.288007	-0.043032 	0.000881
-98.650000	-0.001154	-3.288333	3.287179	-0.043055 	0.000881
-98.625000	-0.001148	-3.287500	3.286352	-0.043077 	0.000881
-98.600000	-0.001142	-3.286667	3.285525	-0.043099 	0.000881
-98.575000	-0.001136	-3.285833	3.284697	-0.043121 	0.000881
-98.550000	-0.001130	-3.285000	3.283870	-0.043142 	0.000881
-98.525000	-0.001124	-3.284167	3.283043	-0.043164 	0.000881
-98.500000	-0.001118	-3.283333	3.282215	-0.043186 	0.000882
-98.475000	-0.001112	-3.282500	3.281388	-0.043208 	0.000882
-98.450000	-0.001106	-3.281667	3.280561	-0.043229 	0.000882
-98.425000	-0.001100	-3.280833	3.279733	-0.043251 	0.000882
-98.400000	-0.001094	-3.280000	3.278906	-0.043273 	0.000882
-98.375000	-0.001088	-3.279167	3.278079	-0.043294 	0.000882
-98.350000	-0.001082	-3.278333	3.277251	-0.043316 	0.000882
-98.325000	-0.001076	-3.277500	3.276424	-0.043337 	0.000882
-98.300000	-0.001069	-3.276667	3.275598	-0.043359 	0.000882
-98.275000	-0.001063	-3.275833	3.274770	-0.043380 	0.000883
-98.250000	-0.001057	-3.275000	3.273943	-0.043402 	0.000883
-98.225000	-0.001051	-3.274167	3.273116	-0.043423 	0.000883
-98.200000	-0.001045	-3.273333	3.272288	-0.043444 	0.000883
-98.175000	-0.001039	-3.272500	3.271461	-0.043465 	0.000883
-98.150000	-0.001033	-3.271667	3.270634	-0.043487 	0.000883
-98.125000	-0.001027	-3.270833	3.269806	-0.043508 	0.000883
-98.100000	-0.001021	-3.270000	3.268979	-0.043529 	0.000883
-98.075000	-0.001015	-3.269167	3.268152	-0.043550 	0.000883
-98.050000	-0.001009	-3.268333	3.267324	-0.043571 	0.000884
-98.025000	-0.001002	-3.267500	3.266498	-0.043592 	0.000884
-98.000000	-0.000996	-3.266667	3.265671	-0.043613 	0.000884
-97.975000	-0.000990	-3.265833	3.264843	-0.043634 	0.000884
-97.950000	-0.000984	-3.265000	3.264016	-0.043655 	0.000884
-97.925000	-0.000978	-3.264167	3.263189	-0.043675 	0.000884
-97.900000	-0.000972	-3.263333	3.262361	-0.043696 	0.000884
-97.875000	-0.000966	-3.262500	3.261534	-0.043717 	0.000884
-97.850000	-0.000959	-3.261667	3.260708	-0.043738 	0.000885
-97.825000	-0.000953	-3.260833	3.259880	-0.043758 	0.000885
-97.800000	-0.000947	-3.260000	3.259053	-0.043779 	0.000885
-97.775000	-0.000941	-3.259167	3.258226	-0.043799 	0.000885
-97.750000	-0.000935	-3.258333	3.257398	-0.043820 	0.000885
-97.725000	-0.000929	-3.257500	3.256571	-0.043840 	0.000885
-97.700000	-0.000922	-3.256667	3.255745	-0.043861 	0.000885
-97.675000	-0.000916	-3.255833	3.254917	-0.043881 	0.000885
-97.650000	-0.000910	-3.255000	3.254090	-0.043901 	0.000885
-97.625000	-0.000904	-3.254167	3.253263	-0.043921 	0.000886
-97.600000	-0.000898	-3.253333	3.252435	-0.043942 	0.000886
-97.575000	-0.000891	-3.252500	3.251609	-0.043962 	0.000886
-97.550000	-0.000885	-3.251667	3.250782	-0.043982 	0.000886
-97.525000	-0.000879	-3.250833	3.249954	-0.044002 	0.000886
-97.500000	-0.000873	-3.250000	3.249127	-0.044022 	0.000886
-97.475000	-0.000867	-3.249167	3.248300	-0.044042 	0.000886
-97.450000	-0.000860	-3.248333	3.247473	-0.044062 	0.000886
-97.425000	-0.000854	-3.247500	3.246646	-0.044082 	0.000886
-97.400000	-0.000848	-3.246667	3.245819	-0.044102 	0.000887
-97.375000	-0.000842	-3.245833	3.244991	-0.044121 	0.000887
-97.350000	-0.000836	-3.245000	3.244164	-0.044141 	0.000887
-97.325000	-0.000829	-3.244167	3.243338	-0.044161 	0.000887
-97.300000	-0.000823	-3.243333	3.242510	-0.044181 	0.000887
-97.275000	-0.000817	-3.242500	3.241683	-0.044200 	0.000887
-97.250000	-0.000811	-3.241667	3.240856	-0.044220 	0.000887
-97.225000	-0.000804	-3.240833	3.240029	-0.044239 	0.000887
-97.200000	-0.000798	-3.240000	3.239202	-0.044259 	0.000887
-97.175000	-0.000792	-3.239167	3.238375	-0.044278 	0.000888
-97.150000	-0.000786	-3.238333	3.237547	-0.044298 	0.000888
-97.125000	-0.000779	-3.237500	3.236721	-0.044317 	0.000888
-97.100000	-0.000773	-3.236667	3.235894	-0.044336 	0.000888
-97.075000	-0.000767	-3.235833	3.235066	-0.044355 	0.000888
-97.050000	-0.000760	-3.235000	3.234240	-0.044375 	0.000888
-97.025000	-0.000754	-3.234167	3.233413	-0.044394 	0.000888
-97.000000	-0.000748	-3.233333	3.232585	-0.044413 	0.000888
-96.975000	-0.000742	-3.232500	3.231758	-0.044432 	0.000888
-96.950000	-0.000735	-3.231667	3.230932	-0.044451 	0.000889
-96.925000	-0.000729	-3.230833	3.230104	-0.044470 	0.000889
-96.900000	-0.000723	-3.230000	3.229277	-0.044489 	0.000889
-96.875000	-0.000716	-3.229167	3.228451	-0.044508 	0.000889
-96.850000	-0.000710	-3.228333	3.227623	-0.044526 	0.000889
-96.825000	-0.000704	-3.227500	3.226796	-0.044545 	0.000889
-96.800000	-0.000697	-3.226667	3.225970	-0.044564 	0.000889
-96.775000	-0.000691	-3.225833	3.225142	-0.044583 	0.000889
-96.750000	-0.000685	-3.225000	3.224315	-0.044601 	0.000889
-96.725000	-0.000678	-3.224167	3.223489	-0.044620 	0.000890
-96.700000	-0.000672	-3.223333	3.222661	-0.044638 	0.000890
-96.675000	-0.000666	-3.222500	3.221834	-0.044657 	0.000890
-96.650000	-0.000659	-3.221667	3.221008	-0.044675 	0.000890
-96.625000	-0.000653	-3.220833	3.220180	-0.044694 	0.000890
-96.600000	-0.000647	-3.220000	3.219353	-0.044712 	0.000890
-96.575000	-0.000640	-3.219167	3.218527	-0.044730 	0.000890
-96.550000	-0.000634	-3.218333	3.217699	-0.044749 	0.000890
-96.525000	-0.000628	-3.217500	3.216872	-0.044767 	0.000891
-96.500000	-0.000621	-3.216667	3.216046	-0.044785 	0.000891
-96.475000	-0.000615	-3.215833	3.215218	-0.044803 	0.000891
-96.450000	-0.000609	-3.215000	3.214391	-0.044821 	0.000891
-96.425000	-0.000602	-3.214167	3.213565	-0.044839 	0.000891
-96.400000	-0.000596	-3.213333	3.212737	-0.044857 	0.000891
-96.375000	-0.000590	-3.212500	3.211910	-0.044875 	0.000891
-96.350000	-0.000583	-3.211667	3.211084	-0.044893 	0.000891
-96.325000	-0.000577	-3.210833	3.210256	-0.044911 	0.000891
-96.300000	-0.000570	-3.210000	3.209430	-0.044929 	0.000892
-96.275000	-0.000564	-3.209167	3.208603	-0.044946 	0.000892
-96.250000	-0.000558	-3.208333	3.207775	-0.044964 	0.000892
-96.225000	-0.000551	-3.207500	3.206949	-0.044982 	0.000892
-96.200000	-0.000545	-3.206667	3.206122	-0.044999 	0.000892
-96.175000	-0.000538	-3.205833	3.205295	-0.045017 	0.000892
-96.150000	-0.000532	-3.205000	3.204468	-0.045034 	0.000892
-96.125000	-0.000526	-3.204167	3.203641	-0.045052 	0.000892
-96.100000	-0.000519	-3.203333	3.202814	-0.045069 	0.000892
-96.075000	-0.000513	-3.202500	3.201987	-0.045086 	0.000893
-96.050000	-0.000506	-3.201667	3.201161	-0.045103 	0.000893
-96.025000	-0.000500	-3.200833	3.200333	-0.045121 	0.000893
-96.000000	-0.000493	-3.200000	3.199507	-0.045138 	0.000893
-95.975000	-0.000487	-3.199167	3.198680	-0.045155 	0.000893
-95.950000	-0.000481	-3.198333	3.197852	-0.045172 	0.000893
-95.925000	-0.000474	-3.197500	3.197026	-0.045189 	0.000893
-95.900000	-0.000468	-3.196667	3.196199	-0.045206 	0.000893
-95.875000	-0.000461	-3.195833	3.195372	-0.045223 	0.000894
-95.850000	-0.000455	-3.195000	3.194545	-0.045240 	0.000894
-95.825000	-0.000448	-3.194167	3.193719	-0.045257 	0.000894
-95.800000	-0.000442	-3.193333	3.192891	-0.045274 	0.000894
-95.775000	-0.000435	-3.192500	3.192065	-0.045290 	0.000894
-95.750000	-0.000429	-3.191667	3.191238	-0.045307 	0.000894
-95.725000	-0.000422	-3.190833	3.190411	-0.045324 	0.000894
-95.700000	-0.000416	-3.190000	3.189584	-0.045340 	0.000894
-95.675000	-0.000409	-3.189167	3.188758	-0.045357 	0.000894
-95.650000	-0.000403	-3.188333	3.187930	-0.045373 	0.000895
-95.625000	-0.000396	-3.187500	3.187104	-0.045390 	0.000895
-95.600000	-0.000390	-3.186667	3.186277	-0.045406 	0.000895
-95.575000	-0.000383	-3.185833	3.185450	-0.045422 	0.000895
-95.550000	-0.000377	-3.185000	3.184623	-0.045439 	0.000895
-95.525000	-0.000370	-3.184167	3.183797	-0.045455 	0.000895
-95.500000	-0.000364	-3.183333	3.182969	-0.045471 	0.000895
-95.475000	-0.000357	-3.182500	3.182143	-0.045487 	0.000895
-95.450000	-0.000351	-3.181667	3.181316	-0.045503 	0.000895
-95.425000	-0.000344	-3.180833	3.180489	-0.045519 	0.000896
-95.400000	-0.000338	-3.180000	3.179662	-0.045535 	0.000896
-95.375000	-0.000331	-3.179167	3.178836	-0.045551 	0.000896
-95.350000	-0.000325	-3.178333	3.178008	-0.045567 	0.000896
-95.325000	-0.000318	-3.177500	3.177182	-0.045583 	0.000896
-95.300000	-0.000312	-3.176667	3.176355	-0.045599 	0.000896
-95.275000	-0.000305	-3.175833	3.175528	-0.045614 	0.000896
-95.250000	-0.000299	-3.175000	3.174701	-0.045630 	0.000896
-95.225000	-0.000292	-3.174167	3.173875	-0.045646 	0.000897
-95.200000	-0.000286	-3.173333	3.173047	-0.045661 	0.000897
-95.175000	-0.000279	-3.172500	3.172221	-0.045677 	0.000897
-95.150000	-0.000273	-3.171667	3.171394	-0.045692 	0.000897
-95.125000	-0.000266	-3.170833	3.170567	-0.045708 	0.000897
-95.100000	-0.000260	-3.170000	3.169740	-0.045723 	0.000897
-95.075000	-0.000253	-3.169167	3.168914	-0.045738 	0.000897
-95.050000	-0.000246	-3.168333	3.168087	-0.045754 	0.000897
-95.025000	-0.000240	-3.167500	3.167260	-0.045769 	0.000897
-95.000000	-0.000233	-3.166667	3.166434	-0.045784 	0.000898
-94.975000	-0.000227	-3.165833	3.165606	-0.045799 	0.000898
-94.950000	-0.000220	-3.165000	3.164780	-0.045814 	0.000898
-94.925000	-0.000214	-3.164167	3.163953	-0.045829 	0.000898
-94.900000	-0.000207	-3.163333	3.163126	-0.045844 	0.000898
-94.875000	-0.000200	-3.162500	3.162300	-0.045859 	0.000898
-94.850000	-0.000194	-3.161667	3.161473	-0.045874 	0.000898
-94.825000	-0.000187	-3.160833	3.160646	-0.045889 	0.000898
-94.800000	-0.000181	-3.160000	3.159819	-0.045904 	0.000899
-94.775000	-0.000174	-3.159167	3.158993	-0.045918 	0.000899
-94.750000	-0.000167	-3.158333	3.158166	-0.045933 	0.000899
-94.725000	-0.000161	-3.157500	3.157339	-0.045948 	0.000899
-94.700000	-0.000154	-3.156667	3.156513	-0.045962 	0.000899
-94.675000	-0.000148	-3.155833	3.155685	-0.045977 	0.000899
-94.650000	-0.000141	-3.155000	3.154859	-0.045991 	0.000899
-94.625000	-0.000134	-3.154167	3.154033	-0.046005 	0.000899
-94.600000	-0.000128	-3.153333	3.153205	-0.046020 	0.000899
-94.575000	-0.000121	-3.152500	3.152379	-0.046034 	0.000900
-94.550000	-0.000115	-3.151667	3.151552	-0.046048 	0.000900
-94.525000	-0.000108	-3.150833	3.150725	-0.046062 	0.000900
-94.500000	-0.000101	-3.150000	3.149899	-0.046077 	0.000900
-94.475000	-0.000095	-3.149167	3.149072	-0.046091 	0.000900
-94.450000	-0.000088	-3.148333	3.148245	-0.046105 	0.000900
-94.425000	-0.000081	-3.147500	3.147419	-0.046119 	0.000900
-94.400000	-0.000075	-3.146667	3.146592	-0.046132 	0.000900
-94.375000	-0.000068	-3.145833	3.145765	-0.046146 	0.000901
-94.350000	-0.000062	-3.145000	3.144938	-0.046160 	0.000901
-94.325000	-0.000055	-3.144167	3.144112	-0.046174 	0.000901
-94.300000	-0.000048	-3.143333	3.143285	-0.046188 	0.000901
-94.275000	-0.000042	-3.142500	3.142458	-0.046201 	0.000901
-94.250000	-0.000035	-3.141667	3.141632	-0.046215 	0.000901
-94.225000	-0.000028	-3.140833	3.140805	-0.046228 	0.000901
-94.200000	-0.000022	-3.140000	3.139978	-0.046242 	0.000901
-94.175000	-0.000015	-3.139167	3.139152	-0.046255 	0.000901
-94.150000	-0.000008	-3.138333	3.138325	-0.046269 	0.000902
-94.125000	-0.000002	-3.137500	3.137498	-0.046282 	0.000902
-94.100000	0.000005	-3.136667	3.136672	-0.046295 	0.000902
-94.075000	0.000012	-3.135833	3.135845	-0.046309 	0.000902
-94.050000	0.000018	-3.135000	3.135018	-0.046322 	0.000902
-94.025000	0.000025	-3.134167	3.134192	-0.046335 	0.000902
-94.000000	0.000032	-3.133333	3.133365	-0.046348 	0.000902
-93.975000	0.000038	-3.132500	3.132538	-0.046361 	0.000902
-93.950000	0.000045	-3.131667	3.131712	-0.046374 	0.000903
-93.925000	0.000052	-3.130833	3.130885	-0.046387 	0.000903
-93.900000	0.000059	-3.130000	3.130059	-0.046400 	0.000903
-93.875000	0.000065	-3.129167	3.129232	-0.046412 	0.000903
-93.850000	0.000072	-3.128333	3.128405	-0.046425 	0.000903
-93.825000	0.000079	-3.127500	3.127579	-0.046438 	0.000903
-93.800000	0.000085	-3.126667	3.126752	-0.046450 	0.000903
-93.775000	0.000092	-3.125833	3.125925	-0.046463 	0.000903
-93.750000	0.000099	-3.125000	3.125099	-0.046475 	0.000903
-93.725000	0.000105	-3.124167	3.124272	-0.046488 	0.000904
-93.700000	0.000112	-3.123333	3.123445	-0.046500 	0.000904
-93.675000	0.000119	-3.122500	3.122619	-0.046513 	0.000904
-93.650000	0.000126	-3.121667	3.121793	-0.046525 	0.000904
-93.625000	0.000132	-3.120833	3.120965	-0.046537 	0.000904
-93.600000	0.000139	-3.120000	3.120139	-0.046549 	0.000904
-93.575000	0.000146	-3.119167	3.119313	-0.046562 	0.000904
-93.550000	0.000152	-3.118333	3.118485	-0.046574 	0.000904
-93.525000	0.000159	-3.117500	3.117659	-0.046586 	0.000905
-93.500000	0.000166	-3.116667	3.116833	-0.046598 	0.000905
-93.475000	0.000173	-3.115833	3.116006	-0.046610 	0.000905
-93.450000	0.000179	-3.115000	3.115179	-0.046621 	0.000905
-93.425000	0.000186	-3.114167	3.114353	-0.046633 	0.000905
-93.400000	0.000193	-3.113333	3.113526	-0.046645 	0.000905
-93.375000	0.000200	-3.112500	3.112700	-0.046657 	0.000905
-93.350000	0.000206	-3.111667	3.111873	-0.046668 	0.000905
-93.325000	0.000213	-3.110833	3.111046	-0.046680 	0.000906
-93.300000	0.000220	-3.110000	3.110220	-0.046691 	0.000906
-93.275000	0.000227	-3.109167	3.109394	-0.046703 	0.000906
-93.250000	0.000233	-3.108333	3.108566	-0.046714 	0.000906
-93.225000	0.000240	-3.107500	3.107740	-0.046726 	0.000906
-93.200000	0.000247	-3.106667	3.106914	-0.046737 	0.000906
-93.175000	0.000254	-3.105833	3.106087	-0.046748 	0.000906
-93.150000	0.000260	-3.105000	3.105260	-0.046759 	0.000906
-93.125000	0.000267	-3.104167	3.104434	-0.046770 	0.000906
-93.100000	0.000274	-3.103333	3.103607	-0.046782 	0.000907
-93.075000	0.000281	-3.102500	3.102781	-0.046793 	0.000907
-93.050000	0.000288	-3.101667	3.101955	-0.046804 	0.000907
-93.025000	0.000294	-3.100833	3.101127	-0.046814 	0.000907
-93.000000	0.000301	-3.100000	3.100301	-0.046825 	0.000907
-92.975000	0.000308	-3.099167	3.099475	-0.046836 	0.000907
-92.950000	0.000315	-3.098333	3.098648	-0.046847 	0.000907
-92.925000	0.000321	-3.097500	3.097821	-0.046858 	0.000907
-92.900000	0.000328	-3.096667	3.096995	-0.046868 	0.000908
-92.875000	0.000335	-3.095833	3.096168	-0.046879 	0.000908
-92.850000	0.000342	-3.095000	3.095342	-0.046889 	0.000908
-92.825000	0.000349	-3.094167	3.094516	-0.046900 	0.000908
-92.800000	0.000355	-3.093333	3.093688	-0.046910 	0.000908
-92.775000	0.000362	-3.092500	3.092862	-0.046920 	0.000908
-92.750000	0.000369	-3.091667	3.092036	-0.046931 	0.000908
-92.725000	0.000376	-3.090833	3.091209	-0.046941 	0.000908
-92.700000	0.000383	-3.090000	3.090383	-0.046951 	0.000909
-92.675000	0.000389	-3.089167	3.089556	-0.046961 	0.000909
-92.650000	0.000396	-3.088333	3.088729	-0.046971 	0.000909
-92.625000	0.000403	-3.087500	3.087903	-0.046981 	0.000909
-92.600000	0.000410	-3.086667	3.087077	-0.046991 	0.000909
-92.575000	0.000417	-3.085833	3.086250	-0.047001 	0.000909
-92.550000	0.000423	-3.085000	3.085423	-0.047011 	0.000909
-92.525000	0.000430	-3.084167	3.084597	-0.047021 	0.000909
-92.500000	0.000437	-3.083333	3.083770	-0.047030 	0.000910
-92.475000	0.000444	-3.082500	3.082944	-0.047040 	0.000910
-92.450000	0.000451	-3.081667	3.082118	-0.047050 	0.000910
-92.425000	0.000458	-3.080833	3.081291	-0.047059 	0.000910
-92.400000	0.000464	-3.080000	3.080464	-0.047069 	0.000910
-92.375000	0.000471	-3.079167	3.079638	-0.047078 	0.000910
-92.350000	0.000478	-3.078333	3.078811	-0.047088 	0.000910
-92.325000	0.000485	-3.077500	3.077985	-0.047097 	0.000910
-92.300000	0.000492	-3.076667	3.077159	-0.047106 	0.000911
-92.275000	0.000499	-3.075833	3.076332	-0.047115 	0.000911
-92.250000	0.000505	-3.075000	3.075505	-0.047124 	0.000911
-92.225000	0.000512	-3.074167	3.074679	-0.047134 	0.000911
-92.200000	0.000519	-3.073333	3.073852	-0.047143 	0.000911
-92.175000	0.000526	-3.072500	3.073026	-0.047152 	0.000911
-92.150000	0.000533	-3.071667	3.072200	-0.047160 	0.000911
-92.125000	0.000540	-3.070833	3.071373	-0.047169 	0.000911
-92.100000	0.000546	-3.070000	3.070546	-0.047178 	0.000911
-92.075000	0.000553	-3.069167	3.069720	-0.047187 	0.000912
-92.050000	0.000560	-3.068333	3.068893	-0.047195 	0.000912
-92.025000	0.000567	-3.067500	3.068067	-0.047204 	0.000912
-92.000000	0.000574	-3.066667	3.067241	-0.047213 	0.000912
-91.975000	0.000581	-3.065833	3.066414	-0.047221 	0.000912
-91.950000	0.000588	-3.065000	3.065588	-0.047230 	0.000912
-91.925000	0.000594	-3.064167	3.064761	-0.047238 	0.000912
-91.900000	0.000601	-3.063333	3.063934	-0.047246 	0.000912
-91.875000	0.000608	-3.062500	3.063108	-0.047255 	0.000913
-91.850000	0.000615	-3.061667	3.062282	-0.047263 	0.000913
-91.825000	0.000622	-3.060833	3.061455	-0.047271 	0.000913
-91.800000	0.000629	-3.060000	3.060629	-0.047279 	0.000913
-91.775000	0.000636	-3.059167	3.059803	-0.047287 	0.000913
-91.750000	0.000643	-3.058333	3.058976	-0.047295 	0.000913
-91.725000	0.000649	-3.057500	3.058149	-0.047303 	0.000913
-91.700000	0.000656	-3.056667	3.057323	-0.047311 	0.000913
-91.675000	0.000663	-3.055833	3.056496	-0.047319 	0.000914
-91.650000	0.000670	-3.055000	3.055670	-0.047326 	0.000914
-91.625000	0.000677	-3.054167	3.054844	-0.047334 	0.000914
-91.600000	0.000684	-3.053333	3.054017	-0.047342 	0.000914
-91.575000	0.000691	-3.052500	3.053191	-0.047349 	0.000914
-91.550000	0.000698	-3.051667	3.052365	-0.047357 	0.000914
-91.525000	0.000705	-3.050833	3.051538	-0.047364 	0.000914
-91.500000	0.000711	-3.050000	3.050711	-0.047371 	0.000914
-91.475000	0.000718	-3.049167	3.049885	-0.047379 	0.000915
-91.450000	0.000725	-3.048333	3.049058	-0.047386 	0.000915
-91.425000	0.000732	-3.047500	3.048232	-0.047393 	0.000915
-91.400000	0.000739	-3.046667	3.047406	-0.047400 	0.000915
-91.375000	0.000746	-3.045833	3.046579	-0.047407 	0.000915
-91.350000	0.000753	-3.045000	3.045753	-0.047414 	0.000915
-91.325000	0.000760	-3.044167	3.044927	-0.047421 	0.000915
-91.300000	0.000767	-3.043333	3.044100	-0.047428 	0.000915
-91.275000	0.000773	-3.042500	3.043273	-0.047435 	0.000916
-91.250000	0.000780	-3.041667	3.042447	-0.047442 	0.000916
-91.225000	0.000787	-3.040833	3.041620	-0.047448 	0.000916
-91.200000	0.000794	-3.040000	3.040794	-0.047455 	0.000916
-91.175000	0.000801	-3.039167	3.039968	-0.047462 	0.000916
-91.150000	0.000808	-3.038333	3.039141	-0.047468 	0.000916
-91.125000	0.000815	-3.037500	3.038315	-0.047475 	0.000916
-91.100000	0.000822	-3.036667	3.037489	-0.047481 	0.000916
-91.075000	0.000829	-3.035833	3.036662	-0.047487 	0.000917
-91.050000	0.000836	-3.035000	3.035836	-0.047494 	0.000917
-91.025000	0.000843	-3.034167	3.035010	-0.047500 	0.000917
-91.000000	0.000849	-3.033333	3.034182	-0.047506 	0.000917
-90.975000	0.000856	-3.032500	3.033356	-0.047512 	0.000917
-90.950000	0.000863	-3.031667	3.032530	-0.047518 	0.000917
-90.925000	0.000870	-3.030833	3.031703	-0.047524 	0.000917
-90.900000	0.000877	-3.030000	3.030877	-0.047530 	0.000917
-90.875000	0.000884	-3.029167	3.030051	-0.047536 	0.000918
-90.850000	0.000891	-3.028333	3.029224	-0.047542 	0.000918
-90.825000	0.000898	-3.027500	3.028398	-0.047548 	0.000918
-90.800000	0.000905	-3.026667	3.027572	-0.047553 	0.000918
-90.775000	0.000912	-3.025833	3.026745	-0.047559 	0.000918
-90.750000	0.000919	-3.025000	3.025919	-0.047564 	0.000918
-90.725000	0.000926	-3.024167	3.025093	-0.047570 	0.000918
-90.700000	0.000933	-3.023333	3.024266	-0.047575 	0.000918
-90.675000	0.000940	-3.022500	3.023440	-0.047581 	0.000919
-90.650000	0.000946	-3.021667	3.022613	-0.047586 	0.000919
-90.625000	0.000953	-3.020833	3.021786	-0.047591 	0.000919
-90.600000	0.000960	-3.020000	3.020960	-0.047596 	0.000919
-90.575000	0.000967	-3.019167	3.020134	-0.047602 	0.000919
-90.550000	0.000974	-3.018333	3.019307	-0.047607 	0.000919
-90.525000	0.000981	-3.017500	3.018481	-0.047612 	0.000919
-90.500000	0.000988	-3.016667	3.017655	-0.047617 	0.000919
-90.475000	0.000995	-3.015833	3.016828	-0.047621 	0.000920
-90.450000	0.001002	-3.015000	3.016002	-0.047626 	0.000920
-90.425000	0.001009	-3.014167	3.015176	-0.047631 	0.000920
-90.400000	0.001016	-3.013333	3.014349	-0.047636 	0.000920
-90.375000	0.001023	-3.012500	3.013523	-0.047640 	0.000920
-90.350000	0.001030	-3.011667	3.012697	-0.047645 	0.000920
-90.325000	0.001037	-3.010833	3.011870	-0.047649 	0.000920
-90.300000	0.001044	-3.010000	3.011044	-0.047654 	0.000920
-90.275000	0.001051	-3.009167	3.010218	-0.047658 	0.000921
-90.250000	0.001057	-3.008333	3.009390	-0.047663 	0.000921
-90.225000	0.001064	-3.007500	3.008564	-0.047667 	0.000921
-90.200000	0.001071	-3.006667	3.007738	-0.047671 	0.000921
-90.175000	0.001078	-3.005833	3.006911	-0.047675 	0.000921
-90.150000	0.001085	-3.005000	3.006085	-0.047679 	0.000921
-90.125000	0.001092	-3.004167	3.005259	-0.047683 	0.000921
-90.100000	0.001099	-3.003333	3.004432	-0.047687 	0.000921
-90.075000	0.001106	-3.002500	3.003606	-0.047691 	0.000922
-90.050000	0.001113	-3.001667	3.002780	-0.047695 	0.000922
-90.025000	0.001120	-3.000833	3.001953	-0.047698 	0.000922
-90.000000	0.001127	-3.000000	3.001127	-0.047702 	0.000922
-89.975000	0.001134	-2.999167	3.000301	-0.047706 	0.000922
-89.950000	0.001141	-2.998333	2.999474	-0.047709 	0.000922
-89.925000	0.001148	-2.997500	2.998648	-0.047713 	0.000922
-89.900000	0.001155	-2.996667	2.997822	-0.047716 	0.000922
-89.875000	0.001162	-2.995833	2.996995	-0.047720 	0.000923
-89.850000	0.001169	-2.995000	2.996169	-0.047723 	0.000923
-89.825000	0.001176	-2.994167	2.995343	-0.047726 	0.000923
-89.800000	0.001183	-2.993333	2.994516	-0.047729 	0.000923
-89.775000	0.001190	-2.992500	2.993690	-0.047732 	0.000923
-89.750000	0.001197	-2.991667	2.992864	-0.047735 	0.000923
-89.725000	0.001204	-2.990833	2.992037	-0.047738 	0.000923
-89.700000	0.001211	-2.990000	2.991211	-0.047741 	0.000923
-89.675000	0.001217	-2.989167	2.990384	-0.047744 	0.000924
-89.650000	0.001224	-2.988333	2.989557	-0.047747 	0.000924
-89.625000	0.001231	-2.987500	2.988731	-0.047750 	0.000924
-89.600000	0.001238	-2.986667	2.987905	-0.047752 	0.000924
-89.575000	0.001245	-2.985833	2.987078	-0.047755 	0.000924
-89.550000	0.001252	-2.985000	2.986252	-0.047758 	0.000924
-89.525000	0.001259	-2.984167	2.985426	-0.047760 	0.000924
-89.500000	0.001266	-2.983333	2.984599	-0.047762 	0.000925
-89.475000	0.001273	-2.982500	2.983773	-0.047765 	0.000925
-89.450000	0.001280	-2.981667	2.982947	-0.047767 	0.000925
-89.425000	0.001287	-2.980833	2.982120	-0.047769 	0.000925
-89.400000	0.001294	-2.980000	2.981294	-0.047771 	0.000925
-89.375000	0.001301	-2.979167	2.980468	-0.047773 	0.000925
-89.350000	0.001308	-2.978333	2.979641	-0.047775 	0.000925
-89.325000	0.001315	-2.977500	2.978815	-0.047777 	0.000925
-89.300000	0.001322	-2.976667	2.977989	-0.047779 	0.000926
-89.275000	0.001329	-2.975833	2.977162	-0.047781 	0.000926
-89.250000	0.001336	-2.975000	2.976336	-0.047783 	0.000926
-89.225000	0.001343	-2.974167	2.975510	-0.047784 	0.000926
-89.200000	0.001350	-2.973333	2.974683	-0.047786 	0.000926
-89.175000	0.001357	-2.972500	2.973857	-0.047788 	0.000926
-89.150000	0.001364	-2.971667	2.973031	-0.047789 	0.000926
-89.125000	0.001371	-2.970833	2.972204	-0.047791 	0.000926
-89.100000	0.001378	-2.970000	2.971378	-0.047792 	0.000927
-89.075000	0.001385	-2.969167	2.970552	-0.047793 	0.000927
-89.050000	0.001392	-2.968333	2.969725	-0.047795 	0.000927
-89.025000	0.001399	-2.967500	2.968899	-0.047796 	0.000927
-89.000000	0.001406	-2.966667	2.968073	-0.047797 	0.000927
-88.975000	0.001413	-2.965833	2.967246	-0.047798 	0.000927
-88.950000	0.001420	-2.965000	2.966420	-0.047799 	0.000927
-88.925000	0.001427	-2.964167	2.965594	-0.047800 	0.000927
-88.900000	0.001433	-2.963333	2.964766	-0.047801 	0.000928
-88.875000	0.001440	-2.962500	2.963940	-0.047801 	0.000928
-88.850000	0.001447	-2.961667	2.963114	-0.047802 	0.000928
-88.825000	0.001454	-2.960833	2.962287	-0.047803 	0.000928
-88.800000	0.001461	-2.960000	2.961461	-0.047803 	0.000928
-88.775000	0.001468	-2.959167	2.960635	-0.047804 	0.000928
-88.750000	0.001475	-2.958333	2.959808	-0.047804 	0.000928
-88.725000	0.001482	-2.957500	2.958982	-0.047805 	0.000929
-88.700000	0.001489	-2.956667	2.958156	-0.047805 	0.000929
-88.675000	0.001496	-2.955833	2.957329	-0.047805 	0.000929
-88.650000	0.001503	-2.955000	2.956503	-0.047805 	0.000929
-88.625000	0.001510	-2.954167	2.955677	-0.047805 	0.000929
-88.600000	0.001517	-2.953333	2.954850	-0.047806 	0.000929
-88.575000	0.001524	-2.952500	2.954024	-0.047805 	0.000929
-88.550000	0.001531	-2.951667	2.953198	-0.047805 	0.000929
-88.525000	0.001538	-2.950833	2.952371	-0.047805 	0.000930
-88.500000	0.001545	-2.950000	2.951545	-0.047805 	0.000930
-88.475000	0.001552	-2.949167	2.950719	-0.047805 	0.000930
-88.450000	0.001559	-2.948333	2.949892	-0.047804 	0.000930
-88.425000	0.001566	-2.947500	2.949066	-0.047804 	0.000930
-88.400000	0.001573	-2.946667	2.948240	-0.047803 	0.000930
-88.375000	0.001580	-2.945833	2.947413	-0.047803 	0.000930
-88.350000	0.001587	-2.945000	2.946587	-0.047802 	0.000930
-88.325000	0.001594	-2.944167	2.945761	-0.047802 	0.000931
-88.300000	0.001601	-2.943333	2.944934	-0.047801 	0.000931
-88.275000	0.001608	-2.942500	2.944108	-0.047800 	0.000931
-88.250000	0.001615	-2.941667	2.943282	-0.047799 	0.000931
-88.225000	0.001622	-2.940833	2.942455	-0.047798 	0.000931
-88.200000	0.001629	-2.940000	2.941629	-0.047797 	0.000931
-88.175000	0.001636	-2.939167	2.940803	-0.047796 	0.000931
-88.150000	0.001643	-2.938333	2.939976	-0.047795 	0.000932
-88.125000	0.001650	-2.937500	2.939150	-0.047794 	0.000932
-88.100000	0.001656	-2.936667	2.938323	-0.047792 	0.000932
-88.075000	0.001663	-2.935833	2.937496	-0.047791 	0.000932
-88.050000	0.001670	-2.935000	2.936670	-0.047790 	0.000932
-88.025000	0.001677	-2.934167	2.935844	-0.047788 	0.000932
-88.000000	0.001684	-2.933333	2.935017	-0.047787 	0.000932
-87.975000	0.001691	-2.932500	2.934191	-0.047785 	0.000932
-87.950000	0.001698	-2.931667	2.933365	-0.047783 	0.000933
-87.925000	0.001705	-2.930833	2.932538	-0.047781 	0.000933
-87.900000	0.001712	-2.930000	2.931712	-0.047780 	0.000933
-87.875000	0.001719	-2.929167	2.930886	-0.047778 	0.000933
-87.850000	0.001726	-2.928333	2.930059	-0.047776 	0.000933
-87.825000	0.001733	-2.927500	2.929233	-0.047774 	0.000933
-87.800000	0.001740	-2.926667	2.928407	-0.047772 	0.000933
-87.775000	0.001747	-2.925833	2.927580	-0.047769 	0.000933
-87.750000	0.001754	-2.925000	2.926754	-0.047767 	0.000934
-87.725000	0.001761	-2.924167	2.925928	-0.047765 	0.000934
-87.700000	0.001768	-2.923333	2.925101	-0.047762 	0.000934
-87.675000	0.001775	-2.922500	2.924275	-0.047760 	0.000934
-87.650000	0.001782	-2.921667	2.923449	-0.047757 	0.000934
-87.625000	0.001789	-2.920833	2.922622	-0.047755 	0.000934
-87.600000	0.001796	-2.920000	2.921796	-0.047752 	0.000934
-87.575000	0.001803	-2.919167	2.920970	-0.047749 	0.000935
-87.550000	0.001810	-2.918333	2.920143	-0.047747 	0.000935
-87.525000	0.001816	-2.917500	2.919316	-0.047744 	0.000935
-87.500000	0.001823	-2.916667	2.918490	-0.047741 	0.000935
-87.475000	0.001830	-2.915833	2.917663	-0.047738 	0.000935
-87.450000	0.001837	-2.915000	2.916837	-0.047735 	0.000935