VARIABLES = X,Ksi,B,H,U,tau 
ZONE T="Time 55.000000", I=4400, DATAPACKING=POINT
-100.000000	-0.000089	-3.333333	3.333244	-0.043547 	0.000875
-99.975000	-0.000880	-3.332500	3.331620	-0.042211 	0.000875
-99.950000	-0.000543	-3.331667	3.331124	-0.042810 	0.000875
-99.925000	-0.000683	-3.330833	3.330150	-0.042590 	0.000875
-99.900000	-0.000620	-3.330000	3.329380	-0.042717 	0.000875
-99.875000	-0.000644	-3.329167	3.328523	-0.042697 	0.000875
-99.850000	-0.000631	-3.328333	3.327702	-0.042739 	0.000876
-99.825000	-0.000633	-3.327500	3.326867	-0.042754 	0.000876
-99.800000	-0.000629	-3.326667	3.326038	-0.042781 	0.000876
-99.775000	-0.000628	-3.325833	3.325205	-0.042803 	0.000876
-99.750000	-0.000626	-3.325000	3.324374	-0.042826 	0.000876
-99.725000	-0.000624	-3.324167	3.323543	-0.042849 	0.000876
-99.700000	-0.000621	-3.323333	3.322712	-0.042873 	0.000876
-99.675000	-0.000619	-3.322500	3.321881	-0.042896 	0.000876
-99.650000	-0.000617	-3.321667	3.321050	-0.042919 	0.000876
-99.625000	-0.000615	-3.320833	3.320218	-0.042942 	0.000877
-99.600000	-0.000613	-3.320000	3.319387	-0.042965 	0.000877
-99.575000	-0.000611	-3.319167	3.318556	-0.042988 	0.000877
-99.550000	-0.000609	-3.318333	3.317724	-0.043011 	0.000877
-99.525000	-0.000607	-3.317500	3.316893	-0.043033 	0.000877
-99.500000	-0.000605	-3.316667	3.316062	-0.043056 	0.000877
-99.475000	-0.000602	-3.315833	3.315231	-0.043079 	0.000877
-99.450000	-0.000600	-3.315000	3.314400	-0.043101 	0.000877
-99.425000	-0.000598	-3.314167	3.313569	-0.043124 	0.000877
-99.400000	-0.000596	-3.313333	3.312737	-0.043147 	0.000878
-99.375000	-0.000594	-3.312500	3.311906	-0.043169 	0.000878
-99.350000	-0.000592	-3.311667	3.311075	-0.043192 	0.000878
-99.325000	-0.000590	-3.310833	3.310243	-0.043214 	0.000878
-99.300000	-0.000588	-3.310000	3.309412	-0.043237 	0.000878
-99.275000	-0.000586	-3.309167	3.308581	-0.043259 	0.000878
-99.250000	-0.000583	-3.308333	3.307750	-0.043281 	0.000878
-99.225000	-0.000581	-3.307500	3.306919	-0.043303 	0.000878
-99.200000	-0.000579	-3.306667	3.306088	-0.043326 	0.000878
-99.175000	-0.000577	-3.305833	3.305256	-0.043348 	0.000879
-99.150000	-0.000575	-3.305000	3.304425	-0.043370 	0.000879
-99.125000	-0.000573	-3.304167	3.303594	-0.043392 	0.000879
-99.100000	-0.000571	-3.303333	3.302762	-0.043414 	0.000879
-99.075000	-0.000569	-3.302500	3.301931	-0.043436 	0.000879
-99.050000	-0.000566	-3.301667	3.301101	-0.043458 	0.000879
-99.025000	-0.000564	-3.300833	3.300269	-0.043480 	0.000879
-99.000000	-0.000562	-3.300000	3.299438	-0.043502 	0.000879
-98.975000	-0.000560	-3.299167	3.298607	-0.043523 	0.000879
-98.950000	-0.000558	-3.298333	3.297775	-0.043545 	0.000880
-98.925000	-0.000556	-3.297500	3.296944	-0.043567 	0.000880
-98.900000	-0.000554	-3.296667	3.296113	-0.043588 	0.000880
-98.875000	-0.000552	-3.295833	3.295281	-0.043610 	0.000880
-98.850000	-0.000549	-3.295000	3.294451	-0.043632 	0.000880
-98.825000	-0.000547	-3.294167	3.293620	-0.043653 	0.000880
-98.800000	-0.000545	-3.293333	3.292788	-0.043675 	0.000880
-98.775000	-0.000543	-3.292500	3.291957	-0.043696 	0.000880
-98.750000	-0.000541	-3.291667	3.291126	-0.043717 	0.000880
-98.725000	-0.000539	-3.290833	3.290294	-0.043739 	0.000881
-98.700000	-0.000537	-3.290000	3.289463	-0.043760 	0.000881
-98.675000	-0.000535	-3.289167	3.288632	-0.043781 	0.000881
-98.650000	-0.000532	-3.288333	3.287801	-0.043802 	0.000881
-98.625000	-0.000530	-3.287500	3.286970	-0.043823 	0.000881
-98.600000	-0.000528	-3.286667	3.286139	-0.043844 	0.000881
-98.575000	-0.000526	-3.285833	3.285307	-0.043866 	0.000881
-98.550000	-0.000524	-3.285000	3.284476	-0.043886 	0.000881
-98.525000	-0.000522	-3.284167	3.283645	-0.043907 	0.000881
-98.500000	-0.000519	-3.283333	3.282814	-0.043928 	0.000882
-98.475000	-0.000517	-3.282500	3.281983	-0.043949 	0.000882
-98.450000	-0.000515	-3.281667	3.281152	-0.043970 	0.000882
-98.425000	-0.000513	-3.280833	3.280320	-0.043991 	0.000882
-98.400000	-0.000511	-3.280000	3.279489	-0.044011 	0.000882
-98.375000	-0.000509	-3.279167	3.278658	-0.044032 	0.000882
-98.350000	-0.000507	-3.278333	3.277826	-0.044053 	0.000882
-98.325000	-0.000504	-3.277500	3.276996	-0.044073 	0.000882
-98.300000	-0.000502	-3.276667	3.276165	-0.044094 	0.000882
-98.275000	-0.000500	-3.275833	3.275333	-0.044114 	0.000883
-98.250000	-0.000498	-3.275000	3.274502	-0.044135 	0.000883
-98.225000	-0.000496	-3.274167	3.273671	-0.044155 	0.000883
-98.200000	-0.000493	-3.273333	3.272840	-0.044175 	0.000883
-98.175000	-0.000491	-3.272500	3.272009	-0.044196 	0.000883
-98.150000	-0.000489	-3.271667	3.271178	-0.044216 	0.000883
-98.125000	-0.000487	-3.270833	3.270346	-0.044236 	0.000883
-98.100000	-0.000485	-3.270000	3.269515	-0.044256 	0.000883
-98.075000	-0.000483	-3.269167	3.268684	-0.044276 	0.000883
-98.050000	-0.000480	-3.268333	3.267853	-0.044296 	0.000884
-98.025000	-0.000478	-3.267500	3.267022	-0.044316 	0.000884
-98.000000	-0.000476	-3.266667	3.266191	-0.044336 	0.000884
-97.975000	-0.000474	-3.265833	3.265359	-0.044356 	0.000884
-97.950000	-0.000472	-3.265000	3.264528	-0.044376 	0.000884
-97.925000	-0.000469	-3.264167	3.263698	-0.044396 	0.000884
-97.900000	-0.000467	-3.263333	3.262866	-0.044416 	0.000884
-97.875000	-0.000465	-3.262500	3.262035	-0.044435 	0.000884
-97.850000	-0.000463	-3.261667	3.261204	-0.044455 	0.000884
-97.825000	-0.000461	-3.260833	3.260372	-0.044475 	0.000885
-97.800000	-0.000458	-3.260000	3.259542	-0.044494 	0.000885
-97.775000	-0.000456	-3.259167	3.258711	-0.044514 	0.000885
-97.750000	-0.000454	-3.258333	3.257879	-0.044533 	0.000885
-97.725000	-0.000452	-3.257500	3.257048	-0.044553 	0.000885
-97.700000	-0.000449	-3.256667	3.256218	-0.044572 	0.000885
-97.675000	-0.000447	-3.255833	3.255386	-0.044591 	0.000885
-97.650000	-0.000445	-3.255000	3.254555	-0.044611 	0.000885
-97.625000	-0.000443	-3.254167	3.253724	-0.044630 	0.000885
-97.600000	-0.000441	-3.253333	3.252892	-0.044649 	0.000886
-97.575000	-0.000438	-3.252500	3.252062	-0.044668 	0.000886
-97.550000	-0.000436	-3.251667	3.251231	-0.044687 	0.000886
-97.525000	-0.000434	-3.250833	3.250399	-0.044706 	0.000886
-97.500000	-0.000432	-3.250000	3.249568	-0.044725 	0.000886
-97.475000	-0.000429	-3.249167	3.248738	-0.044744 	0.000886
-97.450000	-0.000427	-3.248333	3.247906	-0.044763 	0.000886
-97.425000	-0.000425	-3.247500	3.247075	-0.044782 	0.000886
-97.400000	-0.000423	-3.246667	3.246244	-0.044801 	0.000886
-97.375000	-0.000420	-3.245833	3.245413	-0.044820 	0.000887
-97.350000	-0.000418	-3.245000	3.244582	-0.044839 	0.000887
-97.325000	-0.000416	-3.244167	3.243751	-0.044857 	0.000887
-97.300000	-0.000413	-3.243333	3.242920	-0.044876 	0.000887
-97.275000	-0.000411	-3.242500	3.242089	-0.044895 	0.000887
-97.250000	-0.000409	-3.241667	3.241258	-0.044913 	0.000887
-97.225000	-0.000407	-3.240833	3.240426	-0.044932 	0.000887
-97.200000	-0.000404	-3.240000	3.239596	-0.044950 	0.000887
-97.175000	-0.000402	-3.239167	3.238765	-0.044968 	0.000887
-97.150000	-0.000400	-3.238333	3.237933	-0.044987 	0.000888
-97.125000	-0.000397	-3.237500	3.237103	-0.045005 	0.000888
-97.100000	-0.000395	-3.236667	3.236272	-0.045023 	0.000888
-97.075000	-0.000393	-3.235833	3.235440	-0.045042 	0.000888
-97.050000	-0.000391	-3.235000	3.234609	-0.045060 	0.000888
-97.025000	-0.000388	-3.234167	3.233779	-0.045078 	0.000888
-97.000000	-0.000386	-3.233333	3.232947	-0.045096 	0.000888
-96.975000	-0.000384	-3.232500	3.232116	-0.045114 	0.000888
-96.950000	-0.000381	-3.231667	3.231286	-0.045132 	0.000889
-96.925000	-0.000379	-3.230833	3.230454	-0.045150 	0.000889
-96.900000	-0.000377	-3.230000	3.229623	-0.045168 	0.000889
-96.875000	-0.000374	-3.229167	3.228793	-0.045186 	0.000889
-96.850000	-0.000372	-3.228333	3.227961	-0.045204 	0.000889
-96.825000	-0.000370	-3.227500	3.227130	-0.045221 	0.000889
-96.800000	-0.000367	-3.226667	3.226300	-0.045239 	0.000889
-96.775000	-0.000365	-3.225833	3.225468	-0.045257 	0.000889
-96.750000	-0.000363	-3.225000	3.224637	-0.045274 	0.000889
-96.725000	-0.000360	-3.224167	3.223807	-0.045292 	0.000890
-96.700000	-0.000358	-3.223333	3.222975	-0.045310 	0.000890
-96.675000	-0.000356	-3.222500	3.222144	-0.045327 	0.000890
-96.650000	-0.000353	-3.221667	3.221314	-0.045344 	0.000890
-96.625000	-0.000351	-3.220833	3.220482	-0.045362 	0.000890
-96.600000	-0.000349	-3.220000	3.219651	-0.045379 	0.000890
-96.575000	-0.000346	-3.219167	3.218821	-0.045397 	0.000890
-96.550000	-0.000344	-3.218333	3.217989	-0.045414 	0.000890
-96.525000	-0.000341	-3.217500	3.217159	-0.045431 	0.000890
-96.500000	-0.000339	-3.216667	3.216328	-0.045448 	0.000891
-96.475000	-0.000337	-3.215833	3.215496	-0.045465 	0.000891
-96.450000	-0.000334	-3.215000	3.214666	-0.045482 	0.000891
-96.425000	-0.000332	-3.214167	3.213835	-0.045499 	0.000891
-96.400000	-0.000329	-3.213333	3.213004	-0.045516 	0.000891
-96.375000	-0.000327	-3.212500	3.212173	-0.045533 	0.000891
-96.350000	-0.000325	-3.211667	3.211342	-0.045550 	0.000891
-96.325000	-0.000322	-3.210833	3.210511	-0.045567 	0.000891
-96.300000	-0.000320	-3.210000	3.209680	-0.045583 	0.000892
-96.275000	-0.000317	-3.209167	3.208850	-0.045600 	0.000892
-96.250000	-0.000315	-3.208333	3.208018	-0.045617 	0.000892
-96.225000	-0.000312	-3.207500	3.207188	-0.045633 	0.000892
-96.200000	-0.000310	-3.206667	3.206357	-0.045650 	0.000892
-96.175000	-0.000308	-3.205833	3.205525	-0.045666 	0.000892
-96.150000	-0.000305	-3.205000	3.204695	-0.045683 	0.000892
-96.125000	-0.000303	-3.204167	3.203864	-0.045699 	0.000892
-96.100000	-0.000300	-3.203333	3.203033	-0.045716 	0.000892
-96.075000	-0.000298	-3.202500	3.202202	-0.045732 	0.000893
-96.050000	-0.000295	-3.201667	3.201372	-0.045748 	0.000893
-96.025000	-0.000293	-3.200833	3.200540	-0.045764 	0.000893
-96.000000	-0.000290	-3.200000	3.199710	-0.045781 	0.000893
-95.975000	-0.000288	-3.199167	3.198879	-0.045797 	0.000893
-95.950000	-0.000285	-3.198333	3.198048	-0.045813 	0.000893
-95.925000	-0.000283	-3.197500	3.197217	-0.045829 	0.000893
-95.900000	-0.000281	-3.196667	3.196386	-0.045845 	0.000893
-95.875000	-0.000278	-3.195833	3.195555	-0.045861 	0.000893
-95.850000	-0.000276	-3.195000	3.194724	-0.045877 	0.000894
-95.825000	-0.000273	-3.194167	3.193894	-0.045892 	0.000894
-95.800000	-0.000271	-3.193333	3.193062	-0.045908 	0.000894
-95.775000	-0.000268	-3.192500	3.192232	-0.045924 	0.000894
-95.750000	-0.000266	-3.191667	3.191401	-0.045940 	0.000894
-95.725000	-0.000263	-3.190833	3.190570	-0.045955 	0.000894
-95.700000	-0.000261	-3.190000	3.189739	-0.045971 	0.000894
-95.675000	-0.000258	-3.189167	3.188909	-0.045986 	0.000894
-95.650000	-0.000256	-3.188333	3.188077	-0.046002 	0.000895
-95.625000	-0.000253	-3.187500	3.187247	-0.046017 	0.000895
-95.600000	-0.000251	-3.186667	3.186416	-0.046033 	0.000895
-95.575000	-0.000248	-3.185833	3.185585	-0.046048 	0.000895
-95.550000	-0.000245	-3.185000	3.184755	-0.046063 	0.000895
-95.525000	-0.000243	-3.184167	3.183924	-0.046079 	0.000895
-95.500000	-0.000240	-3.183333	3.183093	-0.046094 	0.000895
-95.475000	-0.000238	-3.182500	3.182262	-0.046109 	0.000895
-95.450000	-0.000235	-3.181667	3.181432	-0.046124 	0.000895
-95.425000	-0.000233	-3.180833	3.180600	-0.046139 	0.000896
-95.400000	-0.000230	-3.180000	3.179770	-0.046154 	0.000896
-95.375000	-0.000228	-3.179167	3.178939	-0.046169 	0.000896
-95.350000	-0.000225	-3.178333	3.178108	-0.046184 	0.000896
-95.325000	-0.000223	-3.177500	3.177277	-0.046199 	0.000896
-95.300000	-0.000220	-3.176667	3.176447	-0.046214 	0.000896
-95.275000	-0.000217	-3.175833	3.175616	-0.046228 	0.000896
-95.250000	-0.000215	-3.175000	3.174785	-0.046243 	0.000896
-95.225000	-0.000212	-3.174167	3.173955	-0.046258 	0.000897
-95.200000	-0.000210	-3.173333	3.173123	-0.046272 	0.000897
-95.175000	-0.000207	-3.172500	3.172293	-0.046287 	0.000897
-95.150000	-0.000205	-3.171667	3.171462	-0.046301 	0.000897
-95.125000	-0.000202	-3.170833	3.170631	-0.046316 	0.000897
-95.100000	-0.000199	-3.170000	3.169801	-0.046330 	0.000897
-95.075000	-0.000197	-3.169167	3.168970	-0.046345 	0.000897
-95.050000	-0.000194	-3.168333	3.168139	-0.046359 	0.000897
-95.025000	-0.000192	-3.167500	3.167308	-0.046373 	0.000897
-95.000000	-0.000189	-3.166667	3.166478	-0.046387 	0.000898
-94.975000	-0.000186	-3.165833	3.165647	-0.046401 	0.000898
-94.950000	-0.000184	-3.165000	3.164816	-0.046416 	0.000898
-94.925000	-0.000181	-3.164167	3.163986	-0.046430 	0.000898
-94.900000	-0.000178	-3.163333	3.163155	-0.046444 	0.000898
-94.875000	-0.000176	-3.162500	3.162324	-0.046458 	0.000898
-94.850000	-0.000173	-3.161667	3.161494	-0.046471 	0.000898
-94.825000	-0.000171	-3.160833	3.160662	-0.046485 	0.000898
-94.800000	-0.000168	-3.160000	3.159832	-0.046499 	0.000899
-94.775000	-0.000165	-3.159167	3.159002	-0.046513 	0.000899
-94.750000	-0.000163	-3.158333	3.158170	-0.046526 	0.000899
-94.725000	-0.000160	-3.157500	3.157340	-0.046540 	0.000899
-94.700000	-0.000157	-3.156667	3.156510	-0.046554 	0.000899
-94.675000	-0.000155	-3.155833	3.155678	-0.046567 	0.000899
-94.650000	-0.000152	-3.155000	3.154848	-0.046581 	0.000899
-94.625000	-0.000149	-3.154167	3.154018	-0.046594 	0.000899
-94.600000	-0.000147	-3.153333	3.153186	-0.046608 	0.000899
-94.575000	-0.000144	-3.152500	3.152356	-0.046621 	0.000900
-94.550000	-0.000141	-3.151667	3.151526	-0.046634 	0.000900
-94.525000	-0.000139	-3.150833	3.150694	-0.046647 	0.000900
-94.500000	-0.000136	-3.150000	3.149864	-0.046661 	0.000900
-94.475000	-0.000133	-3.149167	3.149034	-0.046674 	0.000900
-94.450000	-0.000131	-3.148333	3.148202	-0.046687 	0.000900
-94.425000	-0.000128	-3.147500	3.147372	-0.046700 	0.000900
-94.400000	-0.000125	-3.146667	3.146542	-0.046713 	0.000900
-94.375000	-0.000123	-3.145833	3.145710	-0.046726 	0.000901
-94.350000	-0.000120	-3.145000	3.144880	-0.046738 	0.000901
-94.325000	-0.000117	-3.144167	3.144050	-0.046751 	0.000901
-94.300000	-0.000114	-3.143333	3.143219	-0.046764 	0.000901
-94.275000	-0.000112	-3.142500	3.142388	-0.046777 	0.000901
-94.250000	-0.000109	-3.141667	3.141558	-0.046789 	0.000901
-94.225000	-0.000106	-3.140833	3.140727	-0.046802 	0.000901
-94.200000	-0.000104	-3.140000	3.139896	-0.046815 	0.000901
-94.175000	-0.000101	-3.139167	3.139066	-0.046827 	0.000901
-94.150000	-0.000098	-3.138333	3.138235	-0.046839 	0.000902
-94.125000	-0.000095	-3.137500	3.137405	-0.046852 	0.000902
-94.100000	-0.000093	-3.136667	3.136574	-0.046864 	0.000902
-94.075000	-0.000090	-3.135833	3.135743	-0.046876 	0.000902
-94.050000	-0.000087	-3.135000	3.134913	-0.046889 	0.000902
-94.025000	-0.000084	-3.134167	3.134083	-0.046901 	0.000902
-94.000000	-0.000082	-3.133333	3.133251	-0.046913 	0.000902
-93.975000	-0.000079	-3.132500	3.132421	-0.046925 	0.000902
-93.950000	-0.000076	-3.131667	3.131591	-0.046937 	0.000903
-93.925000	-0.000073	-3.130833	3.130760	-0.046949 	0.000903
-93.900000	-0.000071	-3.130000	3.129929	-0.046961 	0.000903
-93.875000	-0.000068	-3.129167	3.129099	-0.046973 	0.000903
-93.850000	-0.000065	-3.128333	3.128268	-0.046985 	0.000903
-93.825000	-0.000062	-3.127500	3.127438	-0.046996 	0.000903
-93.800000	-0.000060	-3.126667	3.126607	-0.047008 	0.000903
-93.775000	-0.000057	-3.125833	3.125776	-0.047020 	0.000903
-93.750000	-0.000054	-3.125000	3.124946	-0.047031 	0.000904
-93.725000	-0.000051	-3.124167	3.124116	-0.047043 	0.000904
-93.700000	-0.000048	-3.123333	3.123285	-0.047054 	0.000904
-93.675000	-0.000046	-3.122500	3.122454	-0.047066 	0.000904
-93.650000	-0.000043	-3.121667	3.121624	-0.047077 	0.000904
-93.625000	-0.000040	-3.120833	3.120793	-0.047088 	0.000904
-93.600000	-0.000037	-3.120000	3.119963	-0.047100 	0.000904
-93.575000	-0.000034	-3.119167	3.119133	-0.047111 	0.000904
-93.550000	-0.000032	-3.118333	3.118301	-0.047122 	0.000904
-93.525000	-0.000029	-3.117500	3.117471	-0.047133 	0.000905
-93.500000	-0.000026	-3.116667	3.116641	-0.047144 	0.000905
-93.475000	-0.000023	-3.115833	3.115810	-0.047155 	0.000905
-93.450000	-0.000020	-3.115000	3.114980	-0.047166 	0.000905
-93.425000	-0.000018	-3.114167	3.114149	-0.047177 	0.000905
-93.400000	-0.000015	-3.113333	3.113318	-0.047188 	0.000905
-93.375000	-0.000012	-3.112500	3.112488	-0.047199 	0.000905
-93.350000	-0.000009	-3.111667	3.111658	-0.047209 	0.000905
-93.325000	-0.000006	-3.110833	3.110827	-0.047220 	0.000906
-93.300000	-0.000003	-3.110000	3.109997	-0.047231 	0.000906
-93.275000	-0.000000	-3.109167	3.109167	-0.047241 	0.000906
-93.250000	0.000002	-3.108333	3.108335	-0.047252 	0.000906
-93.225000	0.000005	-3.107500	3.107505	-0.047262 	0.000906
-93.200000	0.000008	-3.106667	3.106675	-0.047273 	0.000906
-93.175000	0.000011	-3.105833	3.105844	-0.047283 	0.000906
-93.150000	0.000014	-3.105000	3.105014	-0.047293 	0.000906
-93.125000	0.000017	-3.104167	3.104184	-0.047303 	0.000907
-93.100000	0.000020	-3.103333	3.103353	-0.047314 	0.000907
-93.075000	0.000022	-3.102500	3.102522	-0.047324 	0.000907
-93.050000	0.000025	-3.101667	3.101692	-0.047334 	0.000907
-93.025000	0.000028	-3.100833	3.100861	-0.047344 	0.000907
-93.000000	0.000031	-3.100000	3.100031	-0.047354 	0.000907
-92.975000	0.000034	-3.099167	3.099201	-0.047364 	0.000907
-92.950000	0.000037	-3.098333	3.098370	-0.047374 	0.000907
-92.925000	0.000040	-3.097500	3.097540	-0.047383 	0.000908
-92.900000	0.000043	-3.096667	3.096710	-0.047393 	0.000908
-92.875000	0.000045	-3.095833	3.095878	-0.047403 	0.000908
-92.850000	0.000048	-3.095000	3.095048	-0.047412 	0.000908
-92.825000	0.000051	-3.094167	3.094218	-0.047422 	0.000908
-92.800000	0.000054	-3.093333	3.093387	-0.047432 	0.000908
-92.775000	0.000057	-3.092500	3.092557	-0.047441 	0.000908
-92.750000	0.000060	-3.091667	3.091727	-0.047450 	0.000908
-92.725000	0.000063	-3.090833	3.090896	-0.047460 	0.000908
-92.700000	0.000066	-3.090000	3.090066	-0.047469 	0.000909
-92.675000	0.000069	-3.089167	3.089236	-0.047478 	0.000909
-92.650000	0.000072	-3.088333	3.088405	-0.047487 	0.000909
-92.625000	0.000075	-3.087500	3.087575	-0.047497 	0.000909
-92.600000	0.000078	-3.086667	3.086745	-0.047506 	0.000909
-92.575000	0.000080	-3.085833	3.085913	-0.047515 	0.000909
-92.550000	0.000083	-3.085000	3.085083	-0.047524 	0.000909
-92.525000	0.000086	-3.084167	3.084253	-0.047533 	0.000909
-92.500000	0.000089	-3.083333	3.083422	-0.047541 	0.000910
-92.475000	0.000092	-3.082500	3.082592	-0.047550 	0.000910
-92.450000	0.000095	-3.081667	3.081762	-0.047559 	0.000910
-92.425000	0.000098	-3.080833	3.080931	-0.047568 	0.000910
-92.400000	0.000101	-3.080000	3.080101	-0.047576 	0.000910
-92.375000	0.000104	-3.079167	3.079271	-0.047585 	0.000910
-92.350000	0.000107	-3.078333	3.078440	-0.047593 	0.000910
-92.325000	0.000110	-3.077500	3.077610	-0.047602 	0.000910
-92.300000	0.000113	-3.076667	3.076780	-0.047610 	0.000911
-92.275000	0.000116	-3.075833	3.075949	-0.047618 	0.000911
-92.250000	0.000119	-3.075000	3.075119	-0.047627 	0.000911
-92.225000	0.000122	-3.074167	3.074289	-0.047635 	0.000911
-92.200000	0.000125	-3.073333	3.073458	-0.047643 	0.000911
-92.175000	0.000128	-3.072500	3.072628	-0.047651 	0.000911
-92.150000	0.000131	-3.071667	3.071798	-0.047659 	0.000911
-92.125000	0.000134	-3.070833	3.070967	-0.047667 	0.000911
-92.100000	0.000137	-3.070000	3.070137	-0.047675 	0.000912
-92.075000	0.000140	-3.069167	3.069307	-0.047683 	0.000912
-92.050000	0.000143	-3.068333	3.068476	-0.047691 	0.000912
-92.025000	0.000146	-3.067500	3.067646	-0.047699 	0.000912
-92.000000	0.000149	-3.066667	3.066816	-0.047706 	0.000912
-91.975000	0.000152	-3.065833	3.065985	-0.047714 	0.000912
-91.950000	0.000155	-3.065000	3.065155	-0.047722 	0.000912
-91.925000	0.000158	-3.064167	3.064325	-0.047729 	0.000912
-91.900000	0.000161	-3.063333	3.063494	-0.047737 	0.000913
-91.875000	0.000164	-3.062500	3.062664	-0.047744 	0.000913
-91.850000	0.000167	-3.061667	3.061834	-0.047751 	0.000913
-91.825000	0.000170	-3.060833	3.061003	-0.047759 	0.000913
-91.800000	0.000173	-3.060000	3.060173	-0.047766 	0.000913
-91.775000	0.000176	-3.059167	3.059343	-0.047773 	0.000913
-91.750000	0.000179	-3.058333	3.058512	-0.047780 	0.000913
-91.725000	0.000182	-3.057500	3.057682	-0.047787 	0.000913
-91.700000	0.000185	-3.056667	3.056852	-0.047794 	0.000914
-91.675000	0.000188	-3.055833	3.056021	-0.047801 	0.000914
-91.650000	0.000191	-3.055000	3.055191	-0.047808 	0.000914
-91.625000	0.000194	-3.054167	3.054361	-0.047815 	0.000914
-91.600000	0.000197	-3.053333	3.053530	-0.047822 	0.000914
-91.575000	0.000200	-3.052500	3.052700	-0.047828 	0.000914
-91.550000	0.000203	-3.051667	3.051870	-0.047835 	0.000914
-91.525000	0.000206	-3.050833	3.051039	-0.047842 	0.000914
-91.500000	0.000209	-3.050000	3.050209	-0.047848 	0.000915
-91.475000	0.000212	-3.049167	3.049379	-0.047855 	0.000915
-91.450000	0.000216	-3.048333	3.048549	-0.047861 	0.000915
-91.425000	0.000219	-3.047500	3.047719	-0.047867 	0.000915
-91.400000	0.000222	-3.046667	3.046889	-0.047874 	0.000915
-91.375000	0.000225	-3.045833	3.046058	-0.047880 	0.000915
-91.350000	0.000228	-3.045000	3.045228	-0.047886 	0.000915
-91.325000	0.000231	-3.044167	3.044398	-0.047892 	0.000915
-91.300000	0.000234	-3.043333	3.043567	-0.047898 	0.000916
-91.275000	0.000237	-3.042500	3.042737	-0.047904 	0.000916
-91.250000	0.000240	-3.041667	3.041907	-0.047910 	0.000916
-91.225000	0.000243	-3.040833	3.041076	-0.047916 	0.000916
-91.200000	0.000246	-3.040000	3.040246	-0.047922 	0.000916
-91.175000	0.000249	-3.039167	3.039416	-0.047928 	0.000916
-91.150000	0.000252	-3.038333	3.038585	-0.047934 	0.000916
-91.125000	0.000256	-3.037500	3.037756	-0.047939 	0.000916
-91.100000	0.000259	-3.036667	3.036926	-0.047945 	0.000917
-91.075000	0.000262	-3.035833	3.036095	-0.047950 	0.000917
-91.050000	0.000265	-3.035000	3.035265	-0.047956 	0.000917
-91.025000	0.000268	-3.034167	3.034435	-0.047961 	0.000917
-91.000000	0.000271	-3.033333	3.033604	-0.047967 	0.000917
-90.975000	0.000274	-3.032500	3.032774	-0.047972 	0.000917
-90.950000	0.000277	-3.031667	3.031944	-0.047977 	0.000917
-90.925000	0.000280	-3.030833	3.031113	-0.047982 	0.000917
-90.900000	0.000284	-3.030000	3.030284	-0.047987 	0.000918
-90.875000	0.000287	-3.029167	3.029454	-0.047993 	0.000918
-90.850000	0.000290	-3.028333	3.028623	-0.047998 	0.000918
-90.825000	0.000293	-3.027500	3.027793	-0.048002 	0.000918
-90.800000	0.000296	-3.026667	3.026963	-0.048007 	0.000918
-90.775000	0.000299	-3.025833	3.026132	-0.048012 	0.000918
-90.750000	0.000302	-3.025000	3.025302	-0.048017 	0.000918
-90.725000	0.000305	-3.024167	3.024472	-0.048022 	0.000918
-90.700000	0.000309	-3.023333	3.023642	-0.048026 	0.000919
-90.675000	0.000312	-3.022500	3.022812	-0.048031 	0.000919
-90.650000	0.000315	-3.021667	3.021982	-0.048035 	0.000919
-90.625000	0.000318	-3.020833	3.021151	-0.048040 	0.000919
-90.600000	0.000321	-3.020000	3.020321	-0.048044 	0.000919
-90.575000	0.000324	-3.019167	3.019491	-0.048049 	0.000919
-90.550000	0.000328	-3.018333	3.018661	-0.048053 	0.000919
-90.525000	0.000331	-3.017500	3.017831	-0.048057 	0.000919
-90.500000	0.000334	-3.016667	3.017001	-0.048061 	0.000920
-90.475000	0.000337	-3.015833	3.016170	-0.048065 	0.000920
-90.450000	0.000340	-3.015000	3.015340	-0.048069 	0.000920
-90.425000	0.000343	-3.014167	3.014510	-0.048073 	0.000920
-90.400000	0.000347	-3.013333	3.013680	-0.048077 	0.000920
-90.375000	0.000350	-3.012500	3.012850	-0.048081 	0.000920
-90.350000	0.000353	-3.011667	3.012020	-0.048085 	0.000920
-90.325000	0.000356	-3.010833	3.011189	-0.048088 	0.000920
-90.300000	0.000359	-3.010000	3.010359	-0.048092 	0.000921
-90.275000	0.000362	-3.009167	3.009529	-0.048096 	0.000921
-90.250000	0.000366	-3.008333	3.008699	-0.048099 	0.000921
-90.225000	0.000369	-3.007500	3.007869	-0.048103 	0.000921
-90.200000	0.000372	-3.006667	3.007039	-0.048106 	0.000921
-90.175000	0.000375	-3.005833	3.006208	-0.048110 	0.000921
-90.150000	0.000378	-3.005000	3.005378	-0.048113 	0.000921
-90.125000	0.000382	-3.004167	3.004549	-0.048116 	0.000921
-90.100000	0.000385	-3.003333	3.003718	-0.048119 	0.000922
-90.075000	0.000388	-3.002500	3.002888	-0.048122 	0.000922
-90.050000	0.000391	-3.001667	3.002058	-0.048125 	0.000922
-90.025000	0.000394	-3.000833	3.001227	-0.048128 	0.000922
-90.000000	0.000398	-3.000000	3.000398	-0.048131 	0.000922
-89.975000	0.000401	-2.999167	2.999568	-0.048134 	0.000922
-89.950000	0.000404	-2.998333	2.998737	-0.048137 	0.000922
-89.925000	0.000407	-2.997500	2.997907	-0.048140 	0.000922
-89.900000	0.000410	-2.996667	2.997077	-0.048142 	0.000923
-89.875000	0.000414	-2.995833	2.996247	-0.048145 	0.000923
-89.850000	0.000417	-2.995000	2.995417	-0.048148 	0.000923
-89.825000	0.000420	-2.994167	2.994587	-0.048150 	0.000923
-89.800000	0.000423	-2.993333	2.993756	-0.048152 	0.000923
-89.775000	0.000427	-2.992500	2.992927	-0.048155 	0.000923
-89.750000	0.000430	-2.991667	2.992097	-0.048157 	0.000923
-89.725000	0.000433	-2.990833	2.991266	-0.048159 	0.000923
-89.700000	0.000436	-2.990000	2.990436	-0.048161 	0.000924
-89.675000	0.000439	-2.989167	2.989606	-0.048164 	0.000924
-89.650000	0.000443	-2.988333	2.988776	-0.048166 	0.000924
-89.625000	0.000446	-2.987500	2.987946	-0.048168 	0.000924
-89.600000	0.000449	-2.986667	2.987116	-0.048170 	0.000924
-89.575000	0.000452	-2.985833	2.986285	-0.048171 	0.000924
-89.550000	0.000456	-2.985000	2.985456	-0.048173 	0.000924
-89.525000	0.000459	-2.984167	2.984626	-0.048175 	0.000925
-89.500000	0.000462	-2.983333	2.983795	-0.048177 	0.000925
-89.475000	0.000465	-2.982500	2.982965	-0.048178 	0.000925
-89.450000	0.000469	-2.981667	2.982136	-0.048180 	0.000925
-89.425000	0.000472	-2.980833	2.981305	-0.048181 	0.000925
-89.400000	0.000475	-2.980000	2.980475	-0.048183 	0.000925
-89.375000	0.000478	-2.979167	2.979645	-0.048184 	0.000925
-89.350000	0.000482	-2.978333	2.978815	-0.048185 	0.000925
-89.325000	0.000485	-2.977500	2.977985	-0.048186 	0.000926
-89.300000	0.000488	-2.976667	2.977155	-0.048188 	0.000926
-89.275000	0.000492	-2.975833	2.976325	-0.048189 	0.000926
-89.250000	0.000495	-2.975000	2.975495	-0.048190 	0.000926
-89.225000	0.000498	-2.974167	2.974665	-0.048191 	0.000926
-89.200000	0.000501	-2.973333	2.973834	-0.048192 	0.000926
-89.175000	0.000505	-2.972500	2.973005	-0.048192 	0.000926
-89.150000	0.000508	-2.971667	2.972175	-0.048193 	0.000926
-89.125000	0.000511	-2.970833	2.971344	-0.048194 	0.000927
-89.100000	0.000514	-2.970000	2.970514	-0.048195 	0.000927
-89.075000	0.000518	-2.969167	2.969685	-0.048195 	0.000927
-89.050000	0.000521	-2.968333	2.968854	-0.048196 	0.000927
-89.025000	0.000524	-2.967500	2.968024	-0.048196 	0.000927
-89.000000	0.000528	-2.966667	2.967195	-0.048197 	0.000927
-88.975000	0.000531	-2.965833	2.966364	-0.048197 	0.000927
-88.950000	0.000534	-2.965000	2.965534	-0.048197 	0.000927
-88.925000	0.000538	-2.964167	2.964705	-0.048197 	0.000928
-88.900000	0.000541	-2.963333	2.963874	-0.048197 	0.000928
-88.875000	0.000544	-2.962500	2.963044	-0.048198 	0.000928
-88.850000	0.000547	-2.961667	2.962214	-0.048198 	0.000928
-88.825000	0.000551	-2.960833	2.961384	-0.048198 	0.000928
-88.800000	0.000554	-2.960000	2.960554	-0.048197 	0.000928
-88.775000	0.000557	-2.959167	2.959724	-0.048197 	0.000928
-88.750000	0.000561	-2.958333	2.958894	-0.048197 	0.000929
-88.725000	0.000564	-2.957500	2.958064	-0.048197 	0.000929
-88.700000	0.000567	-2.956667	2.957234	-0.048196 	0.000929
-88.675000	0.000571	-2.955833	2.956404	-0.048196 	0.000929
-88.650000	0.000574	-2.955000	2.955574	-0.048195 	0.000929
-88.625000	0.000577	-2.954167	2.954744	-0.048195 	0.000929
-88.600000	0.000581	-2.953333	2.953914	-0.048194 	0.000929
-88.575000	0.000584	-2.952500	2.953084	-0.048193 	0.000929
-88.550000	0.000587	-2.951667	2.952254	-0.048193 	0.000930
-88.525000	0.000591	-2.950833	2.951424	-0.048192 	0.000930
-88.500000	0.000594	-2.950000	2.950594	-0.048191 	0.000930
-88.475000	0.000597	-2.949167	2.949764	-0.048190 	0.000930
-88.450000	0.000601	-2.948333	2.948934	-0.048189 	0.000930
-88.425000	0.000604	-2.947500	2.948104	-0.048188 	0.000930
-88.400000	0.000607	-2.946667	2.947274	-0.048187 	0.000930
-88.375000	0.000611	-2.945833	2.946444	-0.048185 	0.000930
-88.350000	0.000614	-2.945000	2.945614	-0.048184 	0.000931
-88.325000	0.000617	-2.944167	2.944784	-0.048183 	0.000931
-88.300000	0.000621	-2.943333	2.943954	-0.048181 	0.000931
-88.275000	0.000624	-2.942500	2.943124	-0.048180 	0.000931
-88.250000	0.000627	-2.941667	2.942294	-0.048178 	0.000931
-88.225000	0.000631	-2.940833	2.941464	-0.048177 	0.000931
-88.200000	0.000634	-2.940000	2.940634	-0.048175 	0.000931
-88.175000	0.000637	-2.939167	2.939804	-0.048173 	0.000932
-88.150000	0.000641	-2.938333	2.938974	-0.048171 	0.000932
-88.125000	0.000644	-2.937500	2.938144	-0.048169 	0.000932
-88.100000	0.000647	-2.936667	2.937314	-0.048168 	0.000932
-88.075000	0.000651	-2.935833	2.936484	-0.048165 	0.000932
-88.050000	0.000654	-2.935000	2.935654	-0.048163 	0.000932
-88.025000	0.000657	-2.934167	2.934824	-0.048161 	0.000932
-88.000000	0.000661	-2.933333	2.933994	-0.048159 	0.000932
-87.975000	0.000664	-2.932500	2.933164	-0.048157 	0.000933
-87.950000	0.000668	-2.931667	2.932335	-0.048154 	0.000933
-87.925000	0.000671	-2.930833	2.931504	-0.048152 	0.000933
-87.900000	0.000674	-2.930000	2.930674	-0.048149 	0.000933
-87.875000	0.000678	-2.929167	2.929845	-0.048147 	0.000933
-87.850000	0.000681	-2.928333	2.929014	-0.048144 	0.000933
-87.825000	0.000684	-2.927500	2.928184	-0.048142 	0.000933
-87.800000	0.000688	-2.926667	2.927355	-0.048139 	0.000934
-87.775000	0.000691	-2.925833	2.926524	-0.048136 	0.000934
-87.750000	0.000695	-2.925000	2.925695	-0.048133 	0.000934
-87.725000	0.000698	-2.924167	2.924865	-0.048130 	0.000934
-87.700000	0.000701	-2.923333	2.924034	-0.048127 	0.000934
-87.675000	0.000705	-2.922500	2.923205	-0.048124 	0.000934
-87.650000	0.000708	-2.921667	2.922375	-0.048121 	0.000934
-87.625000	0.000711	-2.920833	2.921544	-0.048118 	0.000934
-87.600000	0.000715	-2.920000	2.920715	-0.048114 	0.000935
-87.575000	0.000718	-2.919167	2.919885	-0.048111 	0.000935
-87.550000	0.000722	-2.918333	2.919055	-0.048108 	0.000935
-87.525000	0.000725	-2.917500	2.918225	-0.048104 	0.000935
-87.500000	0.000728	-2.916667	2.917395	-0.048101 	0.000935
-87.475000	0.000732	-2.915833	2.916565	-0.048097 	0.000935