VARIABLES = X,Ksi,B,H,U,tau 
ZONE T="Time 65.000000", I=4400, DATAPACKING=POINT
-100.000000	0.005152	-3.333333	3.338485	0.034338 	0.000874
-99.975000	0.004910	-3.332500	3.337410	0.034745 	0.000874
-99.950000	0.004992	-3.331667	3.336659	0.034596 	0.000874
-99.925000	0.004932	-3.330833	3.335765	0.034690 	0.000874
-99.900000	0.004935	-3.330000	3.334935	0.034678 	0.000875
-99.875000	0.004910	-3.329167	3.334077	0.034712 	0.000875
-99.850000	0.004897	-3.328333	3.333230	0.034726 	0.000875
-99.825000	0.004879	-3.327500	3.332379	0.034749 	0.000875
-99.800000	0.004863	-3.326667	3.331530	0.034768 	0.000875
-99.775000	0.004846	-3.325833	3.330679	0.034788 	0.000875
-99.750000	0.004829	-3.325000	3.329829	0.034808 	0.000875
-99.725000	0.004813	-3.324167	3.328980	0.034828 	0.000875
-99.700000	0.004796	-3.323333	3.328129	0.034848 	0.000876
-99.675000	0.004779	-3.322500	3.327279	0.034868 	0.000876
-99.650000	0.004763	-3.321667	3.326430	0.034888 	0.000876
-99.625000	0.004746	-3.320833	3.325579	0.034908 	0.000876
-99.600000	0.004729	-3.320000	3.324729	0.034927 	0.000876
-99.575000	0.004713	-3.319167	3.323880	0.034947 	0.000876
-99.550000	0.004696	-3.318333	3.323029	0.034967 	0.000876
-99.525000	0.004679	-3.317500	3.322179	0.034986 	0.000876
-99.500000	0.004662	-3.316667	3.321329	0.035006 	0.000876
-99.475000	0.004646	-3.315833	3.320479	0.035025 	0.000877
-99.450000	0.004629	-3.315000	3.319629	0.035045 	0.000877
-99.425000	0.004612	-3.314167	3.318779	0.035064 	0.000877
-99.400000	0.004596	-3.313333	3.317929	0.035084 	0.000877
-99.375000	0.004579	-3.312500	3.317079	0.035103 	0.000877
-99.350000	0.004562	-3.311667	3.316229	0.035123 	0.000877
-99.325000	0.004545	-3.310833	3.315378	0.035142 	0.000877
-99.300000	0.004528	-3.310000	3.314528	0.035161 	0.000877
-99.275000	0.004512	-3.309167	3.313679	0.035181 	0.000877
-99.250000	0.004495	-3.308333	3.312828	0.035200 	0.000878
-99.225000	0.004478	-3.307500	3.311978	0.035219 	0.000878
-99.200000	0.004461	-3.306667	3.311128	0.035238 	0.000878
-99.175000	0.004444	-3.305833	3.310277	0.035257 	0.000878
-99.150000	0.004427	-3.305000	3.309427	0.035277 	0.000878
-99.125000	0.004411	-3.304167	3.308578	0.035296 	0.000878
-99.100000	0.004394	-3.303333	3.307727	0.035315 	0.000878
-99.075000	0.004377	-3.302500	3.306877	0.035334 	0.000878
-99.050000	0.004360	-3.301667	3.306027	0.035353 	0.000878
-99.025000	0.004343	-3.300833	3.305176	0.035372 	0.000879
-99.000000	0.004326	-3.300000	3.304326	0.035390 	0.000879
-98.975000	0.004309	-3.299167	3.303476	0.035409 	0.000879
-98.950000	0.004292	-3.298333	3.302625	0.035428 	0.000879
-98.925000	0.004275	-3.297500	3.301775	0.035447 	0.000879
-98.900000	0.004258	-3.296667	3.300925	0.035466 	0.000879
-98.875000	0.004241	-3.295833	3.300074	0.035484 	0.000879
-98.850000	0.004225	-3.295000	3.299225	0.035503 	0.000879
-98.825000	0.004208	-3.294167	3.298375	0.035522 	0.000879
-98.800000	0.004191	-3.293333	3.297524	0.035540 	0.000880
-98.775000	0.004174	-3.292500	3.296674	0.035559 	0.000880
-98.750000	0.004157	-3.291667	3.295824	0.035577 	0.000880
-98.725000	0.004140	-3.290833	3.294973	0.035596 	0.000880
-98.700000	0.004123	-3.290000	3.294123	0.035614 	0.000880
-98.675000	0.004106	-3.289167	3.293273	0.035632 	0.000880
-98.650000	0.004089	-3.288333	3.292422	0.035651 	0.000880
-98.625000	0.004071	-3.287500	3.291571	0.035669 	0.000880
-98.600000	0.004054	-3.286667	3.290721	0.035687 	0.000880
-98.575000	0.004037	-3.285833	3.289870	0.035706 	0.000881
-98.550000	0.004020	-3.285000	3.289020	0.035724 	0.000881
-98.525000	0.004003	-3.284167	3.288170	0.035742 	0.000881
-98.500000	0.003986	-3.283333	3.287319	0.035760 	0.000881
-98.475000	0.003969	-3.282500	3.286469	0.035778 	0.000881
-98.450000	0.003952	-3.281667	3.285619	0.035796 	0.000881
-98.425000	0.003935	-3.280833	3.284768	0.035814 	0.000881
-98.400000	0.003918	-3.280000	3.283918	0.035832 	0.000881
-98.375000	0.003901	-3.279167	3.283068	0.035850 	0.000881
-98.350000	0.003883	-3.278333	3.282216	0.035868 	0.000882
-98.325000	0.003866	-3.277500	3.281366	0.035886 	0.000882
-98.300000	0.003849	-3.276667	3.280516	0.035904 	0.000882
-98.275000	0.003832	-3.275833	3.279665	0.035922 	0.000882
-98.250000	0.003815	-3.275000	3.278815	0.035940 	0.000882
-98.225000	0.003798	-3.274167	3.277965	0.035957 	0.000882
-98.200000	0.003781	-3.273333	3.277114	0.035975 	0.000882
-98.175000	0.003763	-3.272500	3.276263	0.035993 	0.000882
-98.150000	0.003746	-3.271667	3.275413	0.036010 	0.000883
-98.125000	0.003729	-3.270833	3.274562	0.036028 	0.000883
-98.100000	0.003712	-3.270000	3.273712	0.036045 	0.000883
-98.075000	0.003695	-3.269167	3.272862	0.036063 	0.000883
-98.050000	0.003677	-3.268333	3.272010	0.036080 	0.000883
-98.025000	0.003660	-3.267500	3.271160	0.036098 	0.000883
-98.000000	0.003643	-3.266667	3.270310	0.036115 	0.000883
-97.975000	0.003626	-3.265833	3.269459	0.036132 	0.000883
-97.950000	0.003608	-3.265000	3.268608	0.036150 	0.000883
-97.925000	0.003591	-3.264167	3.267758	0.036167 	0.000884
-97.900000	0.003574	-3.263333	3.266907	0.036184 	0.000884
-97.875000	0.003556	-3.262500	3.266056	0.036201 	0.000884
-97.850000	0.003539	-3.261667	3.265206	0.036218 	0.000884
-97.825000	0.003522	-3.260833	3.264355	0.036236 	0.000884
-97.800000	0.003504	-3.260000	3.263504	0.036253 	0.000884
-97.775000	0.003487	-3.259167	3.262654	0.036270 	0.000884
-97.750000	0.003470	-3.258333	3.261803	0.036287 	0.000884
-97.725000	0.003452	-3.257500	3.260952	0.036304 	0.000884
-97.700000	0.003435	-3.256667	3.260102	0.036320 	0.000885
-97.675000	0.003418	-3.255833	3.259251	0.036337 	0.000885
-97.650000	0.003400	-3.255000	3.258400	0.036354 	0.000885
-97.625000	0.003383	-3.254167	3.257550	0.036371 	0.000885
-97.600000	0.003366	-3.253333	3.256699	0.036388 	0.000885
-97.575000	0.003348	-3.252500	3.255848	0.036404 	0.000885
-97.550000	0.003331	-3.251667	3.254998	0.036421 	0.000885
-97.525000	0.003313	-3.250833	3.254146	0.036438 	0.000885
-97.500000	0.003296	-3.250000	3.253296	0.036454 	0.000886
-97.475000	0.003279	-3.249167	3.252446	0.036471 	0.000886
-97.450000	0.003261	-3.248333	3.251594	0.036487 	0.000886
-97.425000	0.003244	-3.247500	3.250744	0.036504 	0.000886
-97.400000	0.003226	-3.246667	3.249893	0.036520 	0.000886
-97.375000	0.003209	-3.245833	3.249042	0.036537 	0.000886
-97.350000	0.003191	-3.245000	3.248191	0.036553 	0.000886
-97.325000	0.003174	-3.244167	3.247341	0.036569 	0.000886
-97.300000	0.003156	-3.243333	3.246489	0.036585 	0.000886
-97.275000	0.003139	-3.242500	3.245639	0.036602 	0.000887
-97.250000	0.003121	-3.241667	3.244788	0.036618 	0.000887
-97.225000	0.003104	-3.240833	3.243937	0.036634 	0.000887
-97.200000	0.003086	-3.240000	3.243086	0.036650 	0.000887
-97.175000	0.003069	-3.239167	3.242236	0.036666 	0.000887
-97.150000	0.003051	-3.238333	3.241384	0.036682 	0.000887
-97.125000	0.003034	-3.237500	3.240534	0.036698 	0.000887
-97.100000	0.003016	-3.236667	3.239683	0.036714 	0.000887
-97.075000	0.002999	-3.235833	3.238832	0.036730 	0.000887
-97.050000	0.002981	-3.235000	3.237981	0.036746 	0.000888
-97.025000	0.002964	-3.234167	3.237131	0.036762 	0.000888
-97.000000	0.002946	-3.233333	3.236279	0.036777 	0.000888
-96.975000	0.002929	-3.232500	3.235429	0.036793 	0.000888
-96.950000	0.002911	-3.231667	3.234578	0.036809 	0.000888
-96.925000	0.002893	-3.230833	3.233726	0.036824 	0.000888
-96.900000	0.002876	-3.230000	3.232876	0.036840 	0.000888
-96.875000	0.002858	-3.229167	3.232025	0.036856 	0.000888
-96.850000	0.002841	-3.228333	3.231174	0.036871 	0.000889
-96.825000	0.002823	-3.227500	3.230323	0.036887 	0.000889
-96.800000	0.002805	-3.226667	3.229472	0.036902 	0.000889
-96.775000	0.002788	-3.225833	3.228621	0.036917 	0.000889
-96.750000	0.002770	-3.225000	3.227770	0.036933 	0.000889
-96.725000	0.002752	-3.224167	3.226919	0.036948 	0.000889
-96.700000	0.002735	-3.223333	3.226068	0.036963 	0.000889
-96.675000	0.002717	-3.222500	3.225217	0.036979 	0.000889
-96.650000	0.002699	-3.221667	3.224366	0.036994 	0.000889
-96.625000	0.002682	-3.220833	3.223515	0.037009 	0.000890
-96.600000	0.002664	-3.220000	3.222664	0.037024 	0.000890
-96.575000	0.002646	-3.219167	3.221813	0.037039 	0.000890
-96.550000	0.002629	-3.218333	3.220962	0.037054 	0.000890
-96.525000	0.002611	-3.217500	3.220111	0.037069 	0.000890
-96.500000	0.002593	-3.216667	3.219260	0.037084 	0.000890
-96.475000	0.002575	-3.215833	3.218408	0.037099 	0.000890
-96.450000	0.002558	-3.215000	3.217558	0.037114 	0.000890
-96.425000	0.002540	-3.214167	3.216707	0.037129 	0.000891
-96.400000	0.002522	-3.213333	3.215855	0.037143 	0.000891
-96.375000	0.002504	-3.212500	3.215004	0.037158 	0.000891
-96.350000	0.002487	-3.211667	3.214154	0.037173 	0.000891
-96.325000	0.002469	-3.210833	3.213302	0.037187 	0.000891
-96.300000	0.002451	-3.210000	3.212451	0.037202 	0.000891
-96.275000	0.002433	-3.209167	3.211600	0.037217 	0.000891
-96.250000	0.002415	-3.208333	3.210748	0.037231 	0.000891
-96.225000	0.002398	-3.207500	3.209898	0.037246 	0.000891
-96.200000	0.002380	-3.206667	3.209047	0.037260 	0.000892
-96.175000	0.002362	-3.205833	3.208195	0.037274 	0.000892
-96.150000	0.002344	-3.205000	3.207344	0.037289 	0.000892
-96.125000	0.002326	-3.204167	3.206493	0.037303 	0.000892
-96.100000	0.002309	-3.203333	3.205642	0.037317 	0.000892
-96.075000	0.002291	-3.202500	3.204791	0.037332 	0.000892
-96.050000	0.002273	-3.201667	3.203940	0.037346 	0.000892
-96.025000	0.002255	-3.200833	3.203088	0.037360 	0.000892
-96.000000	0.002237	-3.200000	3.202237	0.037374 	0.000893
-95.975000	0.002219	-3.199167	3.201386	0.037388 	0.000893
-95.950000	0.002201	-3.198333	3.200534	0.037402 	0.000893
-95.925000	0.002184	-3.197500	3.199684	0.037416 	0.000893
-95.900000	0.002166	-3.196667	3.198833	0.037430 	0.000893
-95.875000	0.002148	-3.195833	3.197981	0.037444 	0.000893
-95.850000	0.002130	-3.195000	3.197130	0.037457 	0.000893
-95.825000	0.002112	-3.194167	3.196279	0.037471 	0.000893
-95.800000	0.002094	-3.193333	3.195427	0.037485 	0.000893
-95.775000	0.002076	-3.192500	3.194576	0.037499 	0.000894
-95.750000	0.002058	-3.191667	3.193725	0.037512 	0.000894
-95.725000	0.002040	-3.190833	3.192873	0.037526 	0.000894
-95.700000	0.002022	-3.190000	3.192022	0.037539 	0.000894
-95.675000	0.002004	-3.189167	3.191171	0.037553 	0.000894
-95.650000	0.001986	-3.188333	3.190319	0.037566 	0.000894
-95.625000	0.001968	-3.187500	3.189468	0.037580 	0.000894
-95.600000	0.001950	-3.186667	3.188617	0.037593 	0.000894
-95.575000	0.001932	-3.185833	3.187765	0.037607 	0.000895
-95.550000	0.001914	-3.185000	3.186914	0.037620 	0.000895
-95.525000	0.001896	-3.184167	3.186063	0.037633 	0.000895
-95.500000	0.001878	-3.183333	3.185211	0.037646 	0.000895
-95.475000	0.001860	-3.182500	3.184360	0.037659 	0.000895
-95.450000	0.001842	-3.181667	3.183509	0.037673 	0.000895
-95.425000	0.001824	-3.180833	3.182657	0.037686 	0.000895
-95.400000	0.001806	-3.180000	3.181806	0.037699 	0.000895
-95.375000	0.001788	-3.179167	3.180955	0.037712 	0.000896
-95.350000	0.001770	-3.178333	3.180103	0.037725 	0.000896
-95.325000	0.001752	-3.177500	3.179252	0.037737 	0.000896
-95.300000	0.001734	-3.176667	3.178401	0.037750 	0.000896
-95.275000	0.001716	-3.175833	3.177549	0.037763 	0.000896
-95.250000	0.001698	-3.175000	3.176698	0.037776 	0.000896
-95.225000	0.001680	-3.174167	3.175847	0.037788 	0.000896
-95.200000	0.001662	-3.173333	3.174995	0.037801 	0.000896
-95.175000	0.001644	-3.172500	3.174144	0.037814 	0.000896
-95.150000	0.001626	-3.171667	3.173293	0.037826 	0.000897
-95.125000	0.001608	-3.170833	3.172441	0.037839 	0.000897
-95.100000	0.001590	-3.170000	3.171590	0.037851 	0.000897
-95.075000	0.001571	-3.169167	3.170738	0.037864 	0.000897
-95.050000	0.001553	-3.168333	3.169886	0.037876 	0.000897
-95.025000	0.001535	-3.167500	3.169035	0.037888 	0.000897
-95.000000	0.001517	-3.166667	3.168184	0.037901 	0.000897
-94.975000	0.001499	-3.165833	3.167332	0.037913 	0.000897
-94.950000	0.001481	-3.165000	3.166481	0.037925 	0.000898
-94.925000	0.001463	-3.164167	3.165630	0.037937 	0.000898
-94.900000	0.001445	-3.163333	3.164778	0.037949 	0.000898
-94.875000	0.001426	-3.162500	3.163926	0.037962 	0.000898
-94.850000	0.001408	-3.161667	3.163075	0.037974 	0.000898
-94.825000	0.001390	-3.160833	3.162223	0.037986 	0.000898
-94.800000	0.001372	-3.160000	3.161372	0.037998 	0.000898
-94.775000	0.001354	-3.159167	3.160521	0.038009 	0.000898
-94.750000	0.001335	-3.158333	3.159668	0.038021 	0.000899
-94.725000	0.001317	-3.157500	3.158817	0.038033 	0.000899
-94.700000	0.001299	-3.156667	3.157966	0.038045 	0.000899
-94.675000	0.001281	-3.155833	3.157114	0.038056 	0.000899
-94.650000	0.001263	-3.155000	3.156263	0.038068 	0.000899
-94.625000	0.001244	-3.154167	3.155411	0.038080 	0.000899
-94.600000	0.001226	-3.153333	3.154559	0.038091 	0.000899
-94.575000	0.001208	-3.152500	3.153708	0.038103 	0.000899
-94.550000	0.001190	-3.151667	3.152857	0.038114 	0.000900
-94.525000	0.001172	-3.150833	3.152005	0.038126 	0.000900
-94.500000	0.001153	-3.150000	3.151153	0.038137 	0.000900
-94.475000	0.001135	-3.149167	3.150302	0.038148 	0.000900
-94.450000	0.001117	-3.148333	3.149450	0.038160 	0.000900
-94.425000	0.001099	-3.147500	3.148599	0.038171 	0.000900
-94.400000	0.001080	-3.146667	3.147747	0.038182 	0.000900
-94.375000	0.001062	-3.145833	3.146895	0.038193 	0.000900
-94.350000	0.001044	-3.145000	3.146044	0.038204 	0.000900
-94.325000	0.001025	-3.144167	3.145192	0.038215 	0.000901
-94.300000	0.001007	-3.143333	3.144340	0.038226 	0.000901
-94.275000	0.000989	-3.142500	3.143489	0.038237 	0.000901
-94.250000	0.000971	-3.141667	3.142638	0.038248 	0.000901
-94.225000	0.000952	-3.140833	3.141785	0.038259 	0.000901
-94.200000	0.000934	-3.140000	3.140934	0.038270 	0.000901
-94.175000	0.000916	-3.139167	3.140083	0.038281 	0.000901
-94.150000	0.000897	-3.138333	3.139230	0.038291 	0.000901
-94.125000	0.000879	-3.137500	3.138379	0.038302 	0.000902
-94.100000	0.000861	-3.136667	3.137528	0.038313 	0.000902
-94.075000	0.000842	-3.135833	3.136675	0.038323 	0.000902
-94.050000	0.000824	-3.135000	3.135824	0.038334 	0.000902
-94.025000	0.000806	-3.134167	3.134973	0.038344 	0.000902
-94.000000	0.000787	-3.133333	3.134120	0.038355 	0.000902
-93.975000	0.000769	-3.132500	3.133269	0.038365 	0.000902
-93.950000	0.000750	-3.131667	3.132417	0.038375 	0.000902
-93.925000	0.000732	-3.130833	3.131565	0.038385 	0.000903
-93.900000	0.000714	-3.130000	3.130714	0.038396 	0.000903
-93.875000	0.000695	-3.129167	3.129862	0.038406 	0.000903
-93.850000	0.000677	-3.128333	3.129010	0.038416 	0.000903
-93.825000	0.000659	-3.127500	3.128159	0.038426 	0.000903
-93.800000	0.000640	-3.126667	3.127307	0.038436 	0.000903
-93.775000	0.000622	-3.125833	3.126455	0.038446 	0.000903
-93.750000	0.000603	-3.125000	3.125603	0.038456 	0.000903
-93.725000	0.000585	-3.124167	3.124752	0.038466 	0.000904
-93.700000	0.000567	-3.123333	3.123900	0.038476 	0.000904
-93.675000	0.000548	-3.122500	3.123048	0.038486 	0.000904
-93.650000	0.000530	-3.121667	3.122197	0.038495 	0.000904
-93.625000	0.000511	-3.120833	3.121344	0.038505 	0.000904
-93.600000	0.000493	-3.120000	3.120493	0.038515 	0.000904
-93.575000	0.000474	-3.119167	3.119641	0.038524 	0.000904
-93.550000	0.000456	-3.118333	3.118789	0.038534 	0.000904
-93.525000	0.000437	-3.117500	3.117937	0.038543 	0.000905
-93.500000	0.000419	-3.116667	3.117086	0.038553 	0.000905
-93.475000	0.000401	-3.115833	3.116234	0.038562 	0.000905
-93.450000	0.000382	-3.115000	3.115382	0.038572 	0.000905
-93.425000	0.000364	-3.114167	3.114531	0.038581 	0.000905
-93.400000	0.000345	-3.113333	3.113678	0.038590 	0.000905
-93.375000	0.000327	-3.112500	3.112827	0.038599 	0.000905
-93.350000	0.000308	-3.111667	3.111975	0.038608 	0.000905
-93.325000	0.000290	-3.110833	3.111123	0.038618 	0.000906
-93.300000	0.000271	-3.110000	3.110271	0.038627 	0.000906
-93.275000	0.000253	-3.109167	3.109420	0.038636 	0.000906
-93.250000	0.000234	-3.108333	3.108567	0.038645 	0.000906
-93.225000	0.000216	-3.107500	3.107716	0.038653 	0.000906
-93.200000	0.000197	-3.106667	3.106864	0.038662 	0.000906
-93.175000	0.000179	-3.105833	3.106012	0.038671 	0.000906
-93.150000	0.000160	-3.105000	3.105160	0.038680 	0.000906
-93.125000	0.000142	-3.104167	3.104309	0.038689 	0.000907
-93.100000	0.000123	-3.103333	3.103456	0.038697 	0.000907
-93.075000	0.000104	-3.102500	3.102604	0.038706 	0.000907
-93.050000	0.000086	-3.101667	3.101753	0.038714 	0.000907
-93.025000	0.000067	-3.100833	3.100900	0.038723 	0.000907
-93.000000	0.000049	-3.100000	3.100049	0.038731 	0.000907
-92.975000	0.000030	-3.099167	3.099197	0.038740 	0.000907
-92.950000	0.000012	-3.098333	3.098345	0.038748 	0.000907
-92.925000	-0.000007	-3.097500	3.097493	0.038756 	0.000908
-92.900000	-0.000025	-3.096667	3.096642	0.038765 	0.000908
-92.875000	-0.000044	-3.095833	3.095789	0.038773 	0.000908
-92.850000	-0.000063	-3.095000	3.094937	0.038781 	0.000908
-92.825000	-0.000081	-3.094167	3.094086	0.038789 	0.000908
-92.800000	-0.000100	-3.093333	3.093233	0.038797 	0.000908
-92.775000	-0.000118	-3.092500	3.092382	0.038805 	0.000908
-92.750000	-0.000137	-3.091667	3.091530	0.038813 	0.000908
-92.725000	-0.000156	-3.090833	3.090677	0.038821 	0.000909
-92.700000	-0.000174	-3.090000	3.089826	0.038829 	0.000909
-92.675000	-0.000193	-3.089167	3.088974	0.038837 	0.000909
-92.650000	-0.000211	-3.088333	3.088122	0.038844 	0.000909
-92.625000	-0.000230	-3.087500	3.087270	0.038852 	0.000909
-92.600000	-0.000249	-3.086667	3.086418	0.038860 	0.000909
-92.575000	-0.000267	-3.085833	3.085566	0.038867 	0.000909
-92.550000	-0.000286	-3.085000	3.084714	0.038875 	0.000909
-92.525000	-0.000305	-3.084167	3.083862	0.038882 	0.000910
-92.500000	-0.000323	-3.083333	3.083010	0.038890 	0.000910
-92.475000	-0.000342	-3.082500	3.082158	0.038897 	0.000910
-92.450000	-0.000360	-3.081667	3.081307	0.038904 	0.000910
-92.425000	-0.000379	-3.080833	3.080454	0.038912 	0.000910
-92.400000	-0.000398	-3.080000	3.079602	0.038919 	0.000910
-92.375000	-0.000416	-3.079167	3.078751	0.038926 	0.000910
-92.350000	-0.000435	-3.078333	3.077898	0.038933 	0.000910
-92.325000	-0.000454	-3.077500	3.077046	0.038940 	0.000911
-92.300000	-0.000472	-3.076667	3.076195	0.038947 	0.000911
-92.275000	-0.000491	-3.075833	3.075342	0.038954 	0.000911
-92.250000	-0.000510	-3.075000	3.074490	0.038961 	0.000911
-92.225000	-0.000528	-3.074167	3.073639	0.038968 	0.000911
-92.200000	-0.000547	-3.073333	3.072786	0.038975 	0.000911
-92.175000	-0.000566	-3.072500	3.071934	0.038982 	0.000911
-92.150000	-0.000584	-3.071667	3.071083	0.038988 	0.000911
-92.125000	-0.000603	-3.070833	3.070230	0.038995 	0.000912
-92.100000	-0.000622	-3.070000	3.069378	0.039002 	0.000912
-92.075000	-0.000641	-3.069167	3.068526	0.039008 	0.000912
-92.050000	-0.000659	-3.068333	3.067674	0.039015 	0.000912
-92.025000	-0.000678	-3.067500	3.066822	0.039021 	0.000912
-92.000000	-0.000697	-3.066667	3.065970	0.039027 	0.000912
-91.975000	-0.000715	-3.065833	3.065118	0.039034 	0.000912
-91.950000	-0.000734	-3.065000	3.064266	0.039040 	0.000912
-91.925000	-0.000753	-3.064167	3.063414	0.039046 	0.000913
-91.900000	-0.000772	-3.063333	3.062561	0.039053 	0.000913
-91.875000	-0.000790	-3.062500	3.061710	0.039059 	0.000913
-91.850000	-0.000809	-3.061667	3.060858	0.039065 	0.000913
-91.825000	-0.000828	-3.060833	3.060005	0.039071 	0.000913
-91.800000	-0.000846	-3.060000	3.059154	0.039077 	0.000913
-91.775000	-0.000865	-3.059167	3.058302	0.039083 	0.000913
-91.750000	-0.000884	-3.058333	3.057449	0.039088 	0.000913
-91.725000	-0.000903	-3.057500	3.056597	0.039094 	0.000914
-91.700000	-0.000921	-3.056667	3.055746	0.039100 	0.000914
-91.675000	-0.000940	-3.055833	3.054893	0.039106 	0.000914
-91.650000	-0.000959	-3.055000	3.054041	0.039111 	0.000914
-91.625000	-0.000978	-3.054167	3.053189	0.039117 	0.000914
-91.600000	-0.000997	-3.053333	3.052336	0.039122 	0.000914
-91.575000	-0.001015	-3.052500	3.051485	0.039128 	0.000914
-91.550000	-0.001034	-3.051667	3.050633	0.039133 	0.000914
-91.525000	-0.001053	-3.050833	3.049780	0.039139 	0.000915
-91.500000	-0.001072	-3.050000	3.048928	0.039144 	0.000915
-91.475000	-0.001090	-3.049167	3.048077	0.039149 	0.000915
-91.450000	-0.001109	-3.048333	3.047224	0.039155 	0.000915
-91.425000	-0.001128	-3.047500	3.046372	0.039160 	0.000915
-91.400000	-0.001147	-3.046667	3.045520	0.039165 	0.000915
-91.375000	-0.001166	-3.045833	3.044667	0.039170 	0.000915
-91.350000	-0.001184	-3.045000	3.043816	0.039175 	0.000915
-91.325000	-0.001203	-3.044167	3.042964	0.039180 	0.000916
-91.300000	-0.001222	-3.043333	3.042111	0.039185 	0.000916
-91.275000	-0.001241	-3.042500	3.041259	0.039190 	0.000916
-91.250000	-0.001260	-3.041667	3.040407	0.039194 	0.000916
-91.225000	-0.001278	-3.040833	3.039555	0.039199 	0.000916
-91.200000	-0.001297	-3.040000	3.038703	0.039204 	0.000916
-91.175000	-0.001316	-3.039167	3.037851	0.039208 	0.000916
-91.150000	-0.001335	-3.038333	3.036998	0.039213 	0.000917
-91.125000	-0.001354	-3.037500	3.036146	0.039217 	0.000917
-91.100000	-0.001372	-3.036667	3.035295	0.039222 	0.000917
-91.075000	-0.001391	-3.035833	3.034442	0.039226 	0.000917
-91.050000	-0.001410	-3.035000	3.033590	0.039231 	0.000917
-91.025000	-0.001429	-3.034167	3.032738	0.039235 	0.000917
-91.000000	-0.001448	-3.033333	3.031885	0.039239 	0.000917
-90.975000	-0.001467	-3.032500	3.031033	0.039243 	0.000917
-90.950000	-0.001485	-3.031667	3.030182	0.039247 	0.000918
-90.925000	-0.001504	-3.030833	3.029329	0.039252 	0.000918
-90.900000	-0.001523	-3.030000	3.028477	0.039256 	0.000918
-90.875000	-0.001542	-3.029167	3.027625	0.039259 	0.000918
-90.850000	-0.001561	-3.028333	3.026772	0.039263 	0.000918
-90.825000	-0.001580	-3.027500	3.025920	0.039267 	0.000918
-90.800000	-0.001599	-3.026667	3.025068	0.039271 	0.000918
-90.775000	-0.001617	-3.025833	3.024216	0.039275 	0.000918
-90.750000	-0.001636	-3.025000	3.023364	0.039278 	0.000919
-90.725000	-0.001655	-3.024167	3.022512	0.039282 	0.000919
-90.700000	-0.001674	-3.023333	3.021659	0.039286 	0.000919
-90.675000	-0.001693	-3.022500	3.020807	0.039289 	0.000919
-90.650000	-0.001712	-3.021667	3.019955	0.039293 	0.000919
-90.625000	-0.001731	-3.020833	3.019102	0.039296 	0.000919
-90.600000	-0.001749	-3.020000	3.018251	0.039299 	0.000919
-90.575000	-0.001768	-3.019167	3.017399	0.039303 	0.000919
-90.550000	-0.001787	-3.018333	3.016546	0.039306 	0.000920
-90.525000	-0.001806	-3.017500	3.015694	0.039309 	0.000920
-90.500000	-0.001825	-3.016667	3.014842	0.039312 	0.000920
-90.475000	-0.001844	-3.015833	3.013989	0.039315 	0.000920
-90.450000	-0.001863	-3.015000	3.013137	0.039318 	0.000920
-90.425000	-0.001882	-3.014167	3.012285	0.039321 	0.000920
-90.400000	-0.001900	-3.013333	3.011433	0.039324 	0.000920
-90.375000	-0.001919	-3.012500	3.010581	0.039327 	0.000921
-90.350000	-0.001938	-3.011667	3.009729	0.039330 	0.000921
-90.325000	-0.001957	-3.010833	3.008876	0.039332 	0.000921
-90.300000	-0.001976	-3.010000	3.008024	0.039335 	0.000921
-90.275000	-0.001995	-3.009167	3.007172	0.039338 	0.000921
-90.250000	-0.002014	-3.008333	3.006319	0.039340 	0.000921
-90.225000	-0.002033	-3.007500	3.005467	0.039343 	0.000921
-90.200000	-0.002052	-3.006667	3.004615	0.039345 	0.000921
-90.175000	-0.002071	-3.005833	3.003762	0.039348 	0.000922
-90.150000	-0.002089	-3.005000	3.002911	0.039350 	0.000922
-90.125000	-0.002108	-3.004167	3.002059	0.039352 	0.000922
-90.100000	-0.002127	-3.003333	3.001206	0.039354 	0.000922
-90.075000	-0.002146	-3.002500	3.000354	0.039357 	0.000922
-90.050000	-0.002165	-3.001667	2.999502	0.039359 	0.000922
-90.025000	-0.002184	-3.000833	2.998649	0.039361 	0.000922
-90.000000	-0.002203	-3.000000	2.997797	0.039363 	0.000922
-89.975000	-0.002222	-2.999167	2.996945	0.039365 	0.000923
-89.950000	-0.002241	-2.998333	2.996092	0.039367 	0.000923
-89.925000	-0.002260	-2.997500	2.995240	0.039368 	0.000923
-89.900000	-0.002279	-2.996667	2.994388	0.039370 	0.000923
-89.875000	-0.002298	-2.995833	2.993535	0.039372 	0.000923
-89.850000	-0.002316	-2.995000	2.992684	0.039373 	0.000923
-89.825000	-0.002335	-2.994167	2.991832	0.039375 	0.000923
-89.800000	-0.002354	-2.993333	2.990979	0.039377 	0.000924
-89.775000	-0.002373	-2.992500	2.990127	0.039378 	0.000924
-89.750000	-0.002392	-2.991667	2.989275	0.039379 	0.000924
-89.725000	-0.002411	-2.990833	2.988422	0.039381 	0.000924
-89.700000	-0.002430	-2.990000	2.987570	0.039382 	0.000924
-89.675000	-0.002449	-2.989167	2.986718	0.039383 	0.000924
-89.650000	-0.002468	-2.988333	2.985865	0.039385 	0.000924
-89.625000	-0.002487	-2.987500	2.985013	0.039386 	0.000924
-89.600000	-0.002506	-2.986667	2.984161	0.039387 	0.000925
-89.575000	-0.002525	-2.985833	2.983308	0.039388 	0.000925
-89.550000	-0.002544	-2.985000	2.982456	0.039389 	0.000925
-89.525000	-0.002563	-2.984167	2.981604	0.039390 	0.000925
-89.500000	-0.002581	-2.983333	2.980752	0.039390 	0.000925
-89.475000	-0.002600	-2.982500	2.979900	0.039391 	0.000925
-89.450000	-0.002619	-2.981667	2.979048	0.039392 	0.000925
-89.425000	-0.002638	-2.980833	2.978195	0.039393 	0.000926
-89.400000	-0.002657	-2.980000	2.977343	0.039393 	0.000926
-89.375000	-0.002676	-2.979167	2.976491	0.039394 	0.000926
-89.350000	-0.002695	-2.978333	2.975638	0.039394 	0.000926
-89.325000	-0.002714	-2.977500	2.974786	0.039395 	0.000926
-89.300000	-0.002733	-2.976667	2.973934	0.039395 	0.000926
-89.275000	-0.002752	-2.975833	2.973081	0.039395 	0.000926
-89.250000	-0.002771	-2.975000	2.972229	0.039395 	0.000926
-89.225000	-0.002790	-2.974167	2.971377	0.039396 	0.000927
-89.200000	-0.002809	-2.973333	2.970524	0.039396 	0.000927
-89.175000	-0.002828	-2.972500	2.969672	0.039396 	0.000927
-89.150000	-0.002847	-2.971667	2.968820	0.039396 	0.000927
-89.125000	-0.002866	-2.970833	2.967967	0.039396 	0.000927
-89.100000	-0.002885	-2.970000	2.967115	0.039396 	0.000927
-89.075000	-0.002904	-2.969167	2.966263	0.039395 	0.000927
-89.050000	-0.002923	-2.968333	2.965410	0.039395 	0.000928
-89.025000	-0.002942	-2.967500	2.964558	0.039395 	0.000928
-89.000000	-0.002961	-2.966667	2.963706	0.039395 	0.000928
-88.975000	-0.002979	-2.965833	2.962854	0.039394 	0.000928
-88.950000	-0.002998	-2.965000	2.962002	0.039394 	0.000928
-88.925000	-0.003017	-2.964167	2.961150	0.039393 	0.000928
-88.900000	-0.003036	-2.963333	2.960297	0.039393 	0.000928
-88.875000	-0.003055	-2.962500	2.959445	0.039392 	0.000928
-88.850000	-0.003074	-2.961667	2.958593	0.039391 	0.000929
-88.825000	-0.003093	-2.960833	2.957740	0.039390 	0.000929
-88.800000	-0.003112	-2.960000	2.956888	0.039390 	0.000929
-88.775000	-0.003131	-2.959167	2.956036	0.039389 	0.000929
-88.750000	-0.003150	-2.958333	2.955183	0.039388 	0.000929
-88.725000	-0.003169	-2.957500	2.954331	0.039387 	0.000929
-88.700000	-0.003188	-2.956667	2.953479	0.039386 	0.000929
-88.675000	-0.003207	-2.955833	2.952626	0.039385 	0.000930
-88.650000	-0.003226	-2.955000	2.951774	0.039383 	0.000930
-88.625000	-0.003245	-2.954167	2.950922	0.039382 	0.000930
-88.600000	-0.003264	-2.953333	2.950069	0.039381 	0.000930
-88.575000	-0.003283	-2.952500	2.949217	0.039380 	0.000930
-88.550000	-0.003302	-2.951667	2.948365	0.039378 	0.000930
-88.525000	-0.003321	-2.950833	2.947512	0.039377 	0.000930
-88.500000	-0.003340	-2.950000	2.946660	0.039375 	0.000930
-88.475000	-0.003359	-2.949167	2.945808	0.039373 	0.000931
-88.450000	-0.003378	-2.948333	2.944955	0.039372 	0.000931
-88.425000	-0.003397	-2.947500	2.944103	0.039370 	0.000931
-88.400000	-0.003416	-2.946667	2.943251	0.039368 	0.000931
-88.375000	-0.003435	-2.945833	2.942398	0.039366 	0.000931
-88.350000	-0.003454	-2.945000	2.941546	0.039364 	0.000931
-88.325000	-0.003472	-2.944167	2.940695	0.039363 	0.000931
-88.300000	-0.003491	-2.943333	2.939842	0.039360 	0.000932
-88.275000	-0.003510	-2.942500	2.938990	0.039358 	0.000932
-88.250000	-0.003529	-2.941667	2.938138	0.039356 	0.000932
-88.225000	-0.003548	-2.940833	2.937285	0.039354 	0.000932
-88.200000	-0.003567	-2.940000	2.936433	0.039352 	0.000932
-88.175000	-0.003586	-2.939167	2.935581	0.039349 	0.000932
-88.150000	-0.003605	-2.938333	2.934728	0.039347 	0.000932
-88.125000	-0.003624	-2.937500	2.933876	0.039345 	0.000932
-88.100000	-0.003643	-2.936667	2.933024	0.039342 	0.000933
-88.075000	-0.003662	-2.935833	2.932171	0.039339 	0.000933
-88.050000	-0.003681	-2.935000	2.931319	0.039337 	0.000933
-88.025000	-0.003700	-2.934167	2.930467	0.039334 	0.000933
-88.000000	-0.003719	-2.933333	2.929614	0.039331 	0.000933
-87.975000	-0.003738	-2.932500	2.928762	0.039329 	0.000933
-87.950000	-0.003757	-2.931667	2.927910	0.039326 	0.000933
-87.925000	-0.003776	-2.930833	2.927057	0.039323 	0.000934
-87.900000	-0.003795	-2.930000	2.926205	0.039320 	0.000934
-87.875000	-0.003814	-2.929167	2.925353	0.039317 	0.000934
-87.850000	-0.003833	-2.928333	2.924500	0.039313 	0.000934
-87.825000	-0.003852	-2.927500	2.923648	0.039310 	0.000934
-87.800000	-0.003871	-2.926667	2.922796	0.039307 	0.000934
-87.775000	-0.003890	-2.925833	2.921943	0.039304 	0.000934
-87.750000	-0.003908	-2.925000	2.921092	0.039300 	0.000935
-87.725000	-0.003927	-2.924167	2.920240	0.039297 	0.000935
-87.700000	-0.003946	-2.923333	2.919387	0.039293 	0.000935
-87.675000	-0.003965	-2.922500	2.918535	0.039290 	0.000935
-87.650000	-0.003984	-2.921667	2.917683	0.039286 	0.000935
-87.625000	-0.004003	-2.920833	2.916830	0.039283 	0.000935
-87.600000	-0.004022	-2.920000	2.915978	0.039279 	0.000935
-87.575000	-0.004041	-2.919167	2.915126	0.039275 	0.000935
-87.550000	-0.004060	-2.918333	2.914273	0.039271 	0.000936
-87.525000	-0.004079	-2.917500	2.913421	0.039267 	0.000936
-87.500000	-0.004098	-2.916667	2.912569	0.039263 	0.000936
-87.475000	-0.004117	-2.915833	2.911716	0.039259 	0.000936
-87.450000	-0.004136	-2.915000	2.910864	0.039255 	0.000936
-87.425000	-0.004155	-2.914167	2.910012	0.039251 	0.000936
-87.400000	-0.004174	-2.913333	2.909159	0.039246 	0.000936
-87.375000	-0.004193	-2.912500	2.908307	0.039242 	0.000937
-87.350000	-0.004212	-2.911667	2.907455	0.039238 	0.000937
-87.325000	-0.004230	-2.910833	2.906603	0.039233 	0.000937
-87.300000	-0.004249	-2.910000	2.905751	0.039229 	0.000937
-87.275000	-0.004268	-2.909167	2.904899	0.039224 	0.000937
-87.250000	-0.004287	-2.908333	2.904046	0.039220 	0.000937