VARIABLES = X,Ksi,B,H,U,tau 
ZONE T="Time 35.000000", I=4400, DATAPACKING=POINT
-100.000000	0.008359	-3.333333	3.341692	-0.022076 	0.000874
-99.975000	0.006329	-3.332500	3.338829	-0.018656 	0.000874
-99.950000	0.007157	-3.331667	3.338824	-0.020131 	0.000874
-99.925000	0.006767	-3.330833	3.337600	-0.019518 	0.000874
-99.900000	0.006896	-3.330000	3.336896	-0.019796 	0.000874
-99.875000	0.006804	-3.329167	3.335971	-0.019694 	0.000874
-99.850000	0.006806	-3.328333	3.335139	-0.019754 	0.000875
-99.825000	0.006768	-3.327500	3.334268	-0.019745 	0.000875
-99.800000	0.006747	-3.326667	3.333414	-0.019766 	0.000875
-99.775000	0.006719	-3.325833	3.332552	-0.019774 	0.000875
-99.750000	0.006693	-3.325000	3.331693	-0.019787 	0.000875
-99.725000	0.006667	-3.324167	3.330834	-0.019797 	0.000875
-99.700000	0.006641	-3.323333	3.329974	-0.019809 	0.000875
-99.675000	0.006615	-3.322500	3.329115	-0.019821 	0.000875
-99.650000	0.006588	-3.321667	3.328255	-0.019832 	0.000875
-99.625000	0.006562	-3.320833	3.327395	-0.019844 	0.000876
-99.600000	0.006536	-3.320000	3.326536	-0.019855 	0.000876
-99.575000	0.006510	-3.319167	3.325677	-0.019867 	0.000876
-99.550000	0.006483	-3.318333	3.324816	-0.019878 	0.000876
-99.525000	0.006457	-3.317500	3.323957	-0.019889 	0.000876
-99.500000	0.006431	-3.316667	3.323098	-0.019901 	0.000876
-99.475000	0.006404	-3.315833	3.322237	-0.019912 	0.000876
-99.450000	0.006378	-3.315000	3.321378	-0.019923 	0.000876
-99.425000	0.006352	-3.314167	3.320519	-0.019935 	0.000877
-99.400000	0.006325	-3.313333	3.319658	-0.019946 	0.000877
-99.375000	0.006299	-3.312500	3.318799	-0.019957 	0.000877
-99.350000	0.006272	-3.311667	3.317939	-0.019968 	0.000877
-99.325000	0.006246	-3.310833	3.317079	-0.019979 	0.000877
-99.300000	0.006220	-3.310000	3.316220	-0.019991 	0.000877
-99.275000	0.006193	-3.309167	3.315360	-0.020002 	0.000877
-99.250000	0.006167	-3.308333	3.314500	-0.020013 	0.000877
-99.225000	0.006140	-3.307500	3.313640	-0.020024 	0.000877
-99.200000	0.006114	-3.306667	3.312781	-0.020035 	0.000878
-99.175000	0.006087	-3.305833	3.311920	-0.020046 	0.000878
-99.150000	0.006061	-3.305000	3.311061	-0.020057 	0.000878
-99.125000	0.006034	-3.304167	3.310201	-0.020068 	0.000878
-99.100000	0.006008	-3.303333	3.309341	-0.020079 	0.000878
-99.075000	0.005981	-3.302500	3.308481	-0.020090 	0.000878
-99.050000	0.005954	-3.301667	3.307621	-0.020101 	0.000878
-99.025000	0.005928	-3.300833	3.306761	-0.020112 	0.000878
-99.000000	0.005901	-3.300000	3.305901	-0.020123 	0.000878
-98.975000	0.005875	-3.299167	3.305042	-0.020134 	0.000879
-98.950000	0.005848	-3.298333	3.304181	-0.020145 	0.000879
-98.925000	0.005821	-3.297500	3.303321	-0.020156 	0.000879
-98.900000	0.005795	-3.296667	3.302462	-0.020167 	0.000879
-98.875000	0.005768	-3.295833	3.301601	-0.020178 	0.000879
-98.850000	0.005741	-3.295000	3.300741	-0.020188 	0.000879
-98.825000	0.005715	-3.294167	3.299882	-0.020199 	0.000879
-98.800000	0.005688	-3.293333	3.299021	-0.020210 	0.000879
-98.775000	0.005661	-3.292500	3.298161	-0.020221 	0.000879
-98.750000	0.005634	-3.291667	3.297301	-0.020231 	0.000880
-98.725000	0.005608	-3.290833	3.296441	-0.020242 	0.000880
-98.700000	0.005581	-3.290000	3.295581	-0.020253 	0.000880
-98.675000	0.005554	-3.289167	3.294721	-0.020263 	0.000880
-98.650000	0.005527	-3.288333	3.293860	-0.020274 	0.000880
-98.625000	0.005501	-3.287500	3.293001	-0.020285 	0.000880
-98.600000	0.005474	-3.286667	3.292141	-0.020295 	0.000880
-98.575000	0.005447	-3.285833	3.291280	-0.020306 	0.000880
-98.550000	0.005420	-3.285000	3.290420	-0.020316 	0.000881
-98.525000	0.005393	-3.284167	3.289560	-0.020327 	0.000881
-98.500000	0.005366	-3.283333	3.288699	-0.020337 	0.000881
-98.475000	0.005339	-3.282500	3.287839	-0.020348 	0.000881
-98.450000	0.005313	-3.281667	3.286980	-0.020358 	0.000881
-98.425000	0.005286	-3.280833	3.286119	-0.020369 	0.000881
-98.400000	0.005259	-3.280000	3.285259	-0.020379 	0.000881
-98.375000	0.005232	-3.279167	3.284399	-0.020389 	0.000881
-98.350000	0.005205	-3.278333	3.283538	-0.020400 	0.000881
-98.325000	0.005178	-3.277500	3.282678	-0.020410 	0.000882
-98.300000	0.005151	-3.276667	3.281818	-0.020421 	0.000882
-98.275000	0.005124	-3.275833	3.280957	-0.020431 	0.000882
-98.250000	0.005097	-3.275000	3.280097	-0.020441 	0.000882
-98.225000	0.005070	-3.274167	3.279237	-0.020451 	0.000882
-98.200000	0.005043	-3.273333	3.278376	-0.020462 	0.000882
-98.175000	0.005016	-3.272500	3.277516	-0.020472 	0.000882
-98.150000	0.004989	-3.271667	3.276656	-0.020482 	0.000882
-98.125000	0.004962	-3.270833	3.275795	-0.020492 	0.000882
-98.100000	0.004934	-3.270000	3.274934	-0.020502 	0.000883
-98.075000	0.004907	-3.269167	3.274074	-0.020513 	0.000883
-98.050000	0.004880	-3.268333	3.273213	-0.020523 	0.000883
-98.025000	0.004853	-3.267500	3.272353	-0.020533 	0.000883
-98.000000	0.004826	-3.266667	3.271493	-0.020543 	0.000883
-97.975000	0.004799	-3.265833	3.270632	-0.020553 	0.000883
-97.950000	0.004772	-3.265000	3.269772	-0.020563 	0.000883
-97.925000	0.004744	-3.264167	3.268911	-0.020573 	0.000883
-97.900000	0.004717	-3.263333	3.268050	-0.020583 	0.000884
-97.875000	0.004690	-3.262500	3.267190	-0.020593 	0.000884
-97.850000	0.004663	-3.261667	3.266330	-0.020603 	0.000884
-97.825000	0.004636	-3.260833	3.265469	-0.020613 	0.000884
-97.800000	0.004608	-3.260000	3.264608	-0.020622 	0.000884
-97.775000	0.004581	-3.259167	3.263748	-0.020632 	0.000884
-97.750000	0.004554	-3.258333	3.262887	-0.020642 	0.000884
-97.725000	0.004527	-3.257500	3.262027	-0.020652 	0.000884
-97.700000	0.004499	-3.256667	3.261166	-0.020662 	0.000884
-97.675000	0.004472	-3.255833	3.260305	-0.020672 	0.000885
-97.650000	0.004445	-3.255000	3.259445	-0.020681 	0.000885
-97.625000	0.004417	-3.254167	3.258584	-0.020691 	0.000885
-97.600000	0.004390	-3.253333	3.257723	-0.020701 	0.000885
-97.575000	0.004363	-3.252500	3.256863	-0.020710 	0.000885
-97.550000	0.004335	-3.251667	3.256002	-0.020720 	0.000885
-97.525000	0.004308	-3.250833	3.255141	-0.020730 	0.000885
-97.500000	0.004281	-3.250000	3.254281	-0.020739 	0.000885
-97.475000	0.004253	-3.249167	3.253420	-0.020749 	0.000885
-97.450000	0.004226	-3.248333	3.252559	-0.020759 	0.000886
-97.425000	0.004198	-3.247500	3.251698	-0.020768 	0.000886
-97.400000	0.004171	-3.246667	3.250838	-0.020778 	0.000886
-97.375000	0.004143	-3.245833	3.249976	-0.020787 	0.000886
-97.350000	0.004116	-3.245000	3.249116	-0.020797 	0.000886
-97.325000	0.004089	-3.244167	3.248256	-0.020806 	0.000886
-97.300000	0.004061	-3.243333	3.247394	-0.020815 	0.000886
-97.275000	0.004034	-3.242500	3.246534	-0.020825 	0.000886
-97.250000	0.004006	-3.241667	3.245673	-0.020834 	0.000887
-97.225000	0.003979	-3.240833	3.244812	-0.020844 	0.000887
-97.200000	0.003951	-3.240000	3.243951	-0.020853 	0.000887
-97.175000	0.003923	-3.239167	3.243090	-0.020862 	0.000887
-97.150000	0.003896	-3.238333	3.242229	-0.020872 	0.000887
-97.125000	0.003868	-3.237500	3.241368	-0.020881 	0.000887
-97.100000	0.003841	-3.236667	3.240508	-0.020890 	0.000887
-97.075000	0.003813	-3.235833	3.239646	-0.020899 	0.000887
-97.050000	0.003786	-3.235000	3.238786	-0.020909 	0.000887
-97.025000	0.003758	-3.234167	3.237925	-0.020918 	0.000888
-97.000000	0.003730	-3.233333	3.237063	-0.020927 	0.000888
-96.975000	0.003703	-3.232500	3.236203	-0.020936 	0.000888
-96.950000	0.003675	-3.231667	3.235342	-0.020945 	0.000888
-96.925000	0.003647	-3.230833	3.234480	-0.020954 	0.000888
-96.900000	0.003620	-3.230000	3.233620	-0.020963 	0.000888
-96.875000	0.003592	-3.229167	3.232759	-0.020972 	0.000888
-96.850000	0.003564	-3.228333	3.231897	-0.020981 	0.000888
-96.825000	0.003537	-3.227500	3.231037	-0.020990 	0.000889
-96.800000	0.003509	-3.226667	3.230176	-0.020999 	0.000889
-96.775000	0.003481	-3.225833	3.229314	-0.021008 	0.000889
-96.750000	0.003454	-3.225000	3.228454	-0.021017 	0.000889
-96.725000	0.003426	-3.224167	3.227593	-0.021026 	0.000889
-96.700000	0.003398	-3.223333	3.226731	-0.021035 	0.000889
-96.675000	0.003370	-3.222500	3.225870	-0.021044 	0.000889
-96.650000	0.003343	-3.221667	3.225010	-0.021053 	0.000889
-96.625000	0.003315	-3.220833	3.224148	-0.021061 	0.000890
-96.600000	0.003287	-3.220000	3.223287	-0.021070 	0.000890
-96.575000	0.003259	-3.219167	3.222426	-0.021079 	0.000890
-96.550000	0.003231	-3.218333	3.221564	-0.021088 	0.000890
-96.525000	0.003204	-3.217500	3.220704	-0.021096 	0.000890
-96.500000	0.003176	-3.216667	3.219843	-0.021105 	0.000890
-96.475000	0.003148	-3.215833	3.218981	-0.021114 	0.000890
-96.450000	0.003120	-3.215000	3.218120	-0.021122 	0.000890
-96.425000	0.003092	-3.214167	3.217259	-0.021131 	0.000890
-96.400000	0.003064	-3.213333	3.216397	-0.021140 	0.000891
-96.375000	0.003036	-3.212500	3.215536	-0.021148 	0.000891
-96.350000	0.003008	-3.211667	3.214675	-0.021157 	0.000891
-96.325000	0.002981	-3.210833	3.213814	-0.021165 	0.000891
-96.300000	0.002953	-3.210000	3.212953	-0.021174 	0.000891
-96.275000	0.002925	-3.209167	3.212092	-0.021182 	0.000891
-96.250000	0.002897	-3.208333	3.211230	-0.021191 	0.000891
-96.225000	0.002869	-3.207500	3.210369	-0.021199 	0.000891
-96.200000	0.002841	-3.206667	3.209508	-0.021207 	0.000892
-96.175000	0.002813	-3.205833	3.208646	-0.021216 	0.000892
-96.150000	0.002785	-3.205000	3.207785	-0.021224 	0.000892
-96.125000	0.002757	-3.204167	3.206924	-0.021232 	0.000892
-96.100000	0.002729	-3.203333	3.206062	-0.021241 	0.000892
-96.075000	0.002701	-3.202500	3.205201	-0.021249 	0.000892
-96.050000	0.002673	-3.201667	3.204340	-0.021257 	0.000892
-96.025000	0.002645	-3.200833	3.203478	-0.021265 	0.000892
-96.000000	0.002617	-3.200000	3.202617	-0.021274 	0.000892
-95.975000	0.002589	-3.199167	3.201756	-0.021282 	0.000893
-95.950000	0.002561	-3.198333	3.200894	-0.021290 	0.000893
-95.925000	0.002533	-3.197500	3.200033	-0.021298 	0.000893
-95.900000	0.002504	-3.196667	3.199171	-0.021306 	0.000893
-95.875000	0.002476	-3.195833	3.198309	-0.021314 	0.000893
-95.850000	0.002448	-3.195000	3.197448	-0.021322 	0.000893
-95.825000	0.002420	-3.194167	3.196587	-0.021330 	0.000893
-95.800000	0.002392	-3.193333	3.195725	-0.021338 	0.000893
-95.775000	0.002364	-3.192500	3.194864	-0.021346 	0.000894
-95.750000	0.002336	-3.191667	3.194003	-0.021354 	0.000894
-95.725000	0.002308	-3.190833	3.193141	-0.021362 	0.000894
-95.700000	0.002280	-3.190000	3.192280	-0.021370 	0.000894
-95.675000	0.002251	-3.189167	3.191418	-0.021378 	0.000894
-95.650000	0.002223	-3.188333	3.190556	-0.021386 	0.000894
-95.625000	0.002195	-3.187500	3.189695	-0.021394 	0.000894
-95.600000	0.002167	-3.186667	3.188834	-0.021401 	0.000894
-95.575000	0.002139	-3.185833	3.187972	-0.021409 	0.000895
-95.550000	0.002110	-3.185000	3.187110	-0.021417 	0.000895
-95.525000	0.002082	-3.184167	3.186249	-0.021425 	0.000895
-95.500000	0.002054	-3.183333	3.185387	-0.021432 	0.000895
-95.475000	0.002026	-3.182500	3.184526	-0.021440 	0.000895
-95.450000	0.001997	-3.181667	3.183664	-0.021448 	0.000895
-95.425000	0.001969	-3.180833	3.182802	-0.021455 	0.000895
-95.400000	0.001941	-3.180000	3.181941	-0.021463 	0.000895
-95.375000	0.001913	-3.179167	3.181080	-0.021471 	0.000896
-95.350000	0.001884	-3.178333	3.180217	-0.021478 	0.000896
-95.325000	0.001856	-3.177500	3.179356	-0.021486 	0.000896
-95.300000	0.001828	-3.176667	3.178495	-0.021493 	0.000896
-95.275000	0.001799	-3.175833	3.177632	-0.021501 	0.000896
-95.250000	0.001771	-3.175000	3.176771	-0.021508 	0.000896
-95.225000	0.001743	-3.174167	3.175910	-0.021515 	0.000896
-95.200000	0.001714	-3.173333	3.175047	-0.021523 	0.000896
-95.175000	0.001686	-3.172500	3.174186	-0.021530 	0.000896
-95.150000	0.001658	-3.171667	3.173325	-0.021538 	0.000897
-95.125000	0.001629	-3.170833	3.172462	-0.021545 	0.000897
-95.100000	0.001601	-3.170000	3.171601	-0.021552 	0.000897
-95.075000	0.001572	-3.169167	3.170739	-0.021559 	0.000897
-95.050000	0.001544	-3.168333	3.169877	-0.021567 	0.000897
-95.025000	0.001516	-3.167500	3.169016	-0.021574 	0.000897
-95.000000	0.001487	-3.166667	3.168154	-0.021581 	0.000897
-94.975000	0.001459	-3.165833	3.167292	-0.021588 	0.000897
-94.950000	0.001430	-3.165000	3.166430	-0.021595 	0.000898
-94.925000	0.001402	-3.164167	3.165569	-0.021603 	0.000898
-94.900000	0.001373	-3.163333	3.164706	-0.021610 	0.000898
-94.875000	0.001345	-3.162500	3.163845	-0.021617 	0.000898
-94.850000	0.001317	-3.161667	3.162984	-0.021624 	0.000898
-94.825000	0.001288	-3.160833	3.162121	-0.021631 	0.000898
-94.800000	0.001260	-3.160000	3.161260	-0.021638 	0.000898
-94.775000	0.001231	-3.159167	3.160398	-0.021645 	0.000898
-94.750000	0.001203	-3.158333	3.159536	-0.021652 	0.000899
-94.725000	0.001174	-3.157500	3.158674	-0.021658 	0.000899
-94.700000	0.001146	-3.156667	3.157813	-0.021665 	0.000899
-94.675000	0.001117	-3.155833	3.156950	-0.021672 	0.000899
-94.650000	0.001088	-3.155000	3.156088	-0.021679 	0.000899
-94.625000	0.001060	-3.154167	3.155227	-0.021686 	0.000899
-94.600000	0.001031	-3.153333	3.154364	-0.021693 	0.000899
-94.575000	0.001003	-3.152500	3.153503	-0.021699 	0.000899
-94.550000	0.000974	-3.151667	3.152641	-0.021706 	0.000900
-94.525000	0.000946	-3.150833	3.151779	-0.021713 	0.000900
-94.500000	0.000917	-3.150000	3.150917	-0.021719 	0.000900
-94.475000	0.000889	-3.149167	3.150056	-0.021726 	0.000900
-94.450000	0.000860	-3.148333	3.149193	-0.021733 	0.000900
-94.425000	0.000831	-3.147500	3.148331	-0.021739 	0.000900
-94.400000	0.000803	-3.146667	3.147470	-0.021746 	0.000900
-94.375000	0.000774	-3.145833	3.146607	-0.021752 	0.000900
-94.350000	0.000745	-3.145000	3.145745	-0.021759 	0.000901
-94.325000	0.000717	-3.144167	3.144884	-0.021765 	0.000901
-94.300000	0.000688	-3.143333	3.144021	-0.021772 	0.000901
-94.275000	0.000660	-3.142500	3.143160	-0.021778 	0.000901
-94.250000	0.000631	-3.141667	3.142298	-0.021784 	0.000901
-94.225000	0.000602	-3.140833	3.141435	-0.021791 	0.000901
-94.200000	0.000574	-3.140000	3.140574	-0.021797 	0.000901
-94.175000	0.000545	-3.139167	3.139712	-0.021803 	0.000901
-94.150000	0.000516	-3.138333	3.138849	-0.021810 	0.000902
-94.125000	0.000487	-3.137500	3.137987	-0.021816 	0.000902
-94.100000	0.000459	-3.136667	3.137126	-0.021822 	0.000902
-94.075000	0.000430	-3.135833	3.136263	-0.021828 	0.000902
-94.050000	0.000401	-3.135000	3.135401	-0.021835 	0.000902
-94.025000	0.000373	-3.134167	3.134540	-0.021841 	0.000902
-94.000000	0.000344	-3.133333	3.133677	-0.021847 	0.000902
-93.975000	0.000315	-3.132500	3.132815	-0.021853 	0.000902
-93.950000	0.000286	-3.131667	3.131953	-0.021859 	0.000903
-93.925000	0.000258	-3.130833	3.131091	-0.021865 	0.000903
-93.900000	0.000229	-3.130000	3.130229	-0.021871 	0.000903
-93.875000	0.000200	-3.129167	3.129367	-0.021877 	0.000903
-93.850000	0.000171	-3.128333	3.128504	-0.021883 	0.000903
-93.825000	0.000143	-3.127500	3.127643	-0.021889 	0.000903
-93.800000	0.000114	-3.126667	3.126781	-0.021895 	0.000903
-93.775000	0.000085	-3.125833	3.125918	-0.021901 	0.000903
-93.750000	0.000056	-3.125000	3.125056	-0.021907 	0.000903
-93.725000	0.000027	-3.124167	3.124194	-0.021912 	0.000904
-93.700000	-0.000001	-3.123333	3.123332	-0.021918 	0.000904
-93.675000	-0.000030	-3.122500	3.122470	-0.021924 	0.000904
-93.650000	-0.000059	-3.121667	3.121608	-0.021930 	0.000904
-93.625000	-0.000088	-3.120833	3.120745	-0.021935 	0.000904
-93.600000	-0.000117	-3.120000	3.119883	-0.021941 	0.000904
-93.575000	-0.000146	-3.119167	3.119021	-0.021947 	0.000904
-93.550000	-0.000174	-3.118333	3.118159	-0.021952 	0.000904
-93.525000	-0.000203	-3.117500	3.117297	-0.021958 	0.000905
-93.500000	-0.000232	-3.116667	3.116435	-0.021963 	0.000905
-93.475000	-0.000261	-3.115833	3.115572	-0.021969 	0.000905
-93.450000	-0.000290	-3.115000	3.114710	-0.021974 	0.000905
-93.425000	-0.000319	-3.114167	3.113848	-0.021980 	0.000905
-93.400000	-0.000348	-3.113333	3.112985	-0.021985 	0.000905
-93.375000	-0.000377	-3.112500	3.112123	-0.021991 	0.000905
-93.350000	-0.000406	-3.111667	3.111261	-0.021996 	0.000906
-93.325000	-0.000434	-3.110833	3.110399	-0.022002 	0.000906
-93.300000	-0.000463	-3.110000	3.109537	-0.022007 	0.000906
-93.275000	-0.000492	-3.109167	3.108675	-0.022012 	0.000906
-93.250000	-0.000521	-3.108333	3.107812	-0.022017 	0.000906
-93.225000	-0.000550	-3.107500	3.106950	-0.022023 	0.000906
-93.200000	-0.000579	-3.106667	3.106088	-0.022028 	0.000906
-93.175000	-0.000608	-3.105833	3.105225	-0.022033 	0.000906
-93.150000	-0.000637	-3.105000	3.104363	-0.022038 	0.000907
-93.125000	-0.000666	-3.104167	3.103501	-0.022043 	0.000907
-93.100000	-0.000695	-3.103333	3.102638	-0.022048 	0.000907
-93.075000	-0.000724	-3.102500	3.101776	-0.022054 	0.000907
-93.050000	-0.000753	-3.101667	3.100914	-0.022059 	0.000907
-93.025000	-0.000782	-3.100833	3.100051	-0.022064 	0.000907
-93.000000	-0.000811	-3.100000	3.099189	-0.022069 	0.000907
-92.975000	-0.000840	-3.099167	3.098327	-0.022074 	0.000907
-92.950000	-0.000869	-3.098333	3.097464	-0.022078 	0.000908
-92.925000	-0.000898	-3.097500	3.096602	-0.022083 	0.000908
-92.900000	-0.000927	-3.096667	3.095740	-0.022088 	0.000908
-92.875000	-0.000956	-3.095833	3.094877	-0.022093 	0.000908
-92.850000	-0.000985	-3.095000	3.094015	-0.022098 	0.000908
-92.825000	-0.001014	-3.094167	3.093153	-0.022103 	0.000908
-92.800000	-0.001043	-3.093333	3.092290	-0.022107 	0.000908
-92.775000	-0.001072	-3.092500	3.091428	-0.022112 	0.000908
-92.750000	-0.001101	-3.091667	3.090566	-0.022117 	0.000909
-92.725000	-0.001130	-3.090833	3.089703	-0.022122 	0.000909
-92.700000	-0.001159	-3.090000	3.088841	-0.022126 	0.000909
-92.675000	-0.001188	-3.089167	3.087979	-0.022131 	0.000909
-92.650000	-0.001217	-3.088333	3.087116	-0.022135 	0.000909
-92.625000	-0.001246	-3.087500	3.086254	-0.022140 	0.000909
-92.600000	-0.001275	-3.086667	3.085392	-0.022144 	0.000909
-92.575000	-0.001305	-3.085833	3.084528	-0.022149 	0.000909
-92.550000	-0.001334	-3.085000	3.083666	-0.022153 	0.000910
-92.525000	-0.001363	-3.084167	3.082804	-0.022158 	0.000910
-92.500000	-0.001392	-3.083333	3.081941	-0.022162 	0.000910
-92.475000	-0.001421	-3.082500	3.081079	-0.022167 	0.000910
-92.450000	-0.001450	-3.081667	3.080217	-0.022171 	0.000910
-92.425000	-0.001479	-3.080833	3.079354	-0.022175 	0.000910
-92.400000	-0.001508	-3.080000	3.078492	-0.022179 	0.000910
-92.375000	-0.001537	-3.079167	3.077630	-0.022184 	0.000910
-92.350000	-0.001567	-3.078333	3.076766	-0.022188 	0.000911
-92.325000	-0.001596	-3.077500	3.075904	-0.022192 	0.000911
-92.300000	-0.001625	-3.076667	3.075042	-0.022196 	0.000911
-92.275000	-0.001654	-3.075833	3.074179	-0.022200 	0.000911
-92.250000	-0.001683	-3.075000	3.073317	-0.022205 	0.000911
-92.225000	-0.001712	-3.074167	3.072455	-0.022209 	0.000911
-92.200000	-0.001741	-3.073333	3.071592	-0.022213 	0.000911
-92.175000	-0.001771	-3.072500	3.070729	-0.022217 	0.000911
-92.150000	-0.001800	-3.071667	3.069867	-0.022221 	0.000912
-92.125000	-0.001829	-3.070833	3.069004	-0.022225 	0.000912
-92.100000	-0.001858	-3.070000	3.068142	-0.022228 	0.000912
-92.075000	-0.001887	-3.069167	3.067280	-0.022232 	0.000912
-92.050000	-0.001916	-3.068333	3.066417	-0.022236 	0.000912
-92.025000	-0.001946	-3.067500	3.065554	-0.022240 	0.000912
-92.000000	-0.001975	-3.066667	3.064692	-0.022244 	0.000912
-91.975000	-0.002004	-3.065833	3.063829	-0.022248 	0.000912
-91.950000	-0.002033	-3.065000	3.062967	-0.022251 	0.000913
-91.925000	-0.002062	-3.064167	3.062105	-0.022255 	0.000913
-91.900000	-0.002092	-3.063333	3.061241	-0.022259 	0.000913
-91.875000	-0.002121	-3.062500	3.060379	-0.022262 	0.000913
-91.850000	-0.002150	-3.061667	3.059517	-0.022266 	0.000913
-91.825000	-0.002179	-3.060833	3.058654	-0.022270 	0.000913
-91.800000	-0.002208	-3.060000	3.057792	-0.022273 	0.000913
-91.775000	-0.002238	-3.059167	3.056929	-0.022277 	0.000914
-91.750000	-0.002267	-3.058333	3.056066	-0.022280 	0.000914
-91.725000	-0.002296	-3.057500	3.055204	-0.022284 	0.000914
-91.700000	-0.002325	-3.056667	3.054342	-0.022287 	0.000914
-91.675000	-0.002355	-3.055833	3.053478	-0.022291 	0.000914
-91.650000	-0.002384	-3.055000	3.052616	-0.022294 	0.000914
-91.625000	-0.002413	-3.054167	3.051754	-0.022297 	0.000914
-91.600000	-0.002442	-3.053333	3.050891	-0.022301 	0.000914
-91.575000	-0.002472	-3.052500	3.050028	-0.022304 	0.000915
-91.550000	-0.002501	-3.051667	3.049166	-0.022307 	0.000915
-91.525000	-0.002530	-3.050833	3.048303	-0.022310 	0.000915
-91.500000	-0.002559	-3.050000	3.047441	-0.022313 	0.000915
-91.475000	-0.002589	-3.049167	3.046578	-0.022317 	0.000915
-91.450000	-0.002618	-3.048333	3.045715	-0.022320 	0.000915
-91.425000	-0.002647	-3.047500	3.044853	-0.022323 	0.000915
-91.400000	-0.002677	-3.046667	3.043990	-0.022326 	0.000915
-91.375000	-0.002706	-3.045833	3.043127	-0.022329 	0.000916
-91.350000	-0.002735	-3.045000	3.042265	-0.022332 	0.000916
-91.325000	-0.002764	-3.044167	3.041403	-0.022335 	0.000916
-91.300000	-0.002794	-3.043333	3.040539	-0.022338 	0.000916
-91.275000	-0.002823	-3.042500	3.039677	-0.022341 	0.000916
-91.250000	-0.002852	-3.041667	3.038815	-0.022344 	0.000916
-91.225000	-0.002882	-3.040833	3.037951	-0.022346 	0.000916
-91.200000	-0.002911	-3.040000	3.037089	-0.022349 	0.000916
-91.175000	-0.002940	-3.039167	3.036227	-0.022352 	0.000917
-91.150000	-0.002970	-3.038333	3.035363	-0.022355 	0.000917
-91.125000	-0.002999	-3.037500	3.034501	-0.022358 	0.000917
-91.100000	-0.003028	-3.036667	3.033639	-0.022360 	0.000917
-91.075000	-0.003058	-3.035833	3.032775	-0.022363 	0.000917
-91.050000	-0.003087	-3.035000	3.031913	-0.022366 	0.000917
-91.025000	-0.003116	-3.034167	3.031051	-0.022368 	0.000917
-91.000000	-0.003146	-3.033333	3.030187	-0.022371 	0.000918
-90.975000	-0.003175	-3.032500	3.029325	-0.022373 	0.000918
-90.950000	-0.003204	-3.031667	3.028463	-0.022376 	0.000918
-90.925000	-0.003234	-3.030833	3.027599	-0.022378 	0.000918
-90.900000	-0.003263	-3.030000	3.026737	-0.022381 	0.000918
-90.875000	-0.003292	-3.029167	3.025875	-0.022383 	0.000918
-90.850000	-0.003322	-3.028333	3.025011	-0.022385 	0.000918
-90.825000	-0.003351	-3.027500	3.024149	-0.022388 	0.000918
-90.800000	-0.003380	-3.026667	3.023287	-0.022390 	0.000919
-90.775000	-0.003410	-3.025833	3.022423	-0.022392 	0.000919
-90.750000	-0.003439	-3.025000	3.021561	-0.022395 	0.000919
-90.725000	-0.003468	-3.024167	3.020699	-0.022397 	0.000919
-90.700000	-0.003498	-3.023333	3.019835	-0.022399 	0.000919
-90.675000	-0.003527	-3.022500	3.018973	-0.022401 	0.000919
-90.650000	-0.003556	-3.021667	3.018111	-0.022403 	0.000919
-90.625000	-0.003586	-3.020833	3.017247	-0.022405 	0.000919
-90.600000	-0.003615	-3.020000	3.016385	-0.022407 	0.000920
-90.575000	-0.003644	-3.019167	3.015523	-0.022409 	0.000920
-90.550000	-0.003674	-3.018333	3.014659	-0.022411 	0.000920
-90.525000	-0.003703	-3.017500	3.013797	-0.022413 	0.000920
-90.500000	-0.003733	-3.016667	3.012934	-0.022415 	0.000920
-90.475000	-0.003762	-3.015833	3.012071	-0.022417 	0.000920
-90.450000	-0.003791	-3.015000	3.011209	-0.022419 	0.000920
-90.425000	-0.003821	-3.014167	3.010346	-0.022421 	0.000921
-90.400000	-0.003850	-3.013333	3.009483	-0.022423 	0.000921
-90.375000	-0.003879	-3.012500	3.008621	-0.022424 	0.000921
-90.350000	-0.003909	-3.011667	3.007758	-0.022426 	0.000921
-90.325000	-0.003938	-3.010833	3.006895	-0.022428 	0.000921
-90.300000	-0.003968	-3.010000	3.006032	-0.022429 	0.000921
-90.275000	-0.003997	-3.009167	3.005170	-0.022431 	0.000921
-90.250000	-0.004026	-3.008333	3.004307	-0.022433 	0.000921
-90.225000	-0.004056	-3.007500	3.003444	-0.022434 	0.000922
-90.200000	-0.004085	-3.006667	3.002582	-0.022436 	0.000922
-90.175000	-0.004115	-3.005833	3.001718	-0.022437 	0.000922
-90.150000	-0.004144	-3.005000	3.000856	-0.022439 	0.000922
-90.125000	-0.004173	-3.004167	2.999994	-0.022440 	0.000922
-90.100000	-0.004203	-3.003333	2.999130	-0.022442 	0.000922
-90.075000	-0.004232	-3.002500	2.998268	-0.022443 	0.000922
-90.050000	-0.004261	-3.001667	2.997406	-0.022444 	0.000923
-90.025000	-0.004291	-3.000833	2.996542	-0.022446 	0.000923
-90.000000	-0.004320	-3.000000	2.995680	-0.022447 	0.000923
-89.975000	-0.004350	-2.999167	2.994817	-0.022448 	0.000923
-89.950000	-0.004379	-2.998333	2.993954	-0.022449 	0.000923
-89.925000	-0.004408	-2.997500	2.993092	-0.022450 	0.000923
-89.900000	-0.004438	-2.996667	2.992229	-0.022452 	0.000923
-89.875000	-0.004467	-2.995833	2.991366	-0.022453 	0.000923
-89.850000	-0.004497	-2.995000	2.990503	-0.022454 	0.000924
-89.825000	-0.004526	-2.994167	2.989641	-0.022455 	0.000924
-89.800000	-0.004555	-2.993333	2.988778	-0.022456 	0.000924
-89.775000	-0.004585	-2.992500	2.987915	-0.022457 	0.000924
-89.750000	-0.004614	-2.991667	2.987053	-0.022458 	0.000924
-89.725000	-0.004644	-2.990833	2.986189	-0.022459 	0.000924
-89.700000	-0.004673	-2.990000	2.985327	-0.022459 	0.000924
-89.675000	-0.004702	-2.989167	2.984465	-0.022460 	0.000925
-89.650000	-0.004732	-2.988333	2.983601	-0.022461 	0.000925
-89.625000	-0.004761	-2.987500	2.982739	-0.022462 	0.000925
-89.600000	-0.004791	-2.986667	2.981876	-0.022463 	0.000925
-89.575000	-0.004820	-2.985833	2.981013	-0.022463 	0.000925
-89.550000	-0.004849	-2.985000	2.980151	-0.022464 	0.000925
-89.525000	-0.004879	-2.984167	2.979288	-0.022465 	0.000925
-89.500000	-0.004908	-2.983333	2.978425	-0.022465 	0.000925
-89.475000	-0.004938	-2.982500	2.977562	-0.022466 	0.000926
-89.450000	-0.004967	-2.981667	2.976700	-0.022466 	0.000926
-89.425000	-0.004996	-2.980833	2.975837	-0.022467 	0.000926
-89.400000	-0.005026	-2.980000	2.974974	-0.022467 	0.000926
-89.375000	-0.005055	-2.979167	2.974112	-0.022468 	0.000926
-89.350000	-0.005085	-2.978333	2.973248	-0.022468 	0.000926
-89.325000	-0.005114	-2.977500	2.972386	-0.022469 	0.000926
-89.300000	-0.005143	-2.976667	2.971524	-0.022469 	0.000927
-89.275000	-0.005173	-2.975833	2.970660	-0.022469 	0.000927
-89.250000	-0.005202	-2.975000	2.969798	-0.022470 	0.000927
-89.225000	-0.005232	-2.974167	2.968935	-0.022470 	0.000927
-89.200000	-0.005261	-2.973333	2.968072	-0.022470 	0.000927
-89.175000	-0.005290	-2.972500	2.967210	-0.022470 	0.000927
-89.150000	-0.005320	-2.971667	2.966347	-0.022470 	0.000927
-89.125000	-0.005349	-2.970833	2.965484	-0.022471 	0.000927
-89.100000	-0.005379	-2.970000	2.964621	-0.022471 	0.000928
-89.075000	-0.005408	-2.969167	2.963759	-0.022471 	0.000928
-89.050000	-0.005437	-2.968333	2.962896	-0.022471 	0.000928
-89.025000	-0.005467	-2.967500	2.962033	-0.022471 	0.000928
-89.000000	-0.005496	-2.966667	2.961171	-0.022471 	0.000928
-88.975000	-0.005526	-2.965833	2.960307	-0.022471 	0.000928
-88.950000	-0.005555	-2.965000	2.959445	-0.022470 	0.000928
-88.925000	-0.005584	-2.964167	2.958583	-0.022470 	0.000929
-88.900000	-0.005614	-2.963333	2.957719	-0.022470 	0.000929
-88.875000	-0.005643	-2.962500	2.956857	-0.022470 	0.000929
-88.850000	-0.005672	-2.961667	2.955995	-0.022470 	0.000929
-88.825000	-0.005702	-2.960833	2.955131	-0.022469 	0.000929
-88.800000	-0.005731	-2.960000	2.954269	-0.022469 	0.000929
-88.775000	-0.005761	-2.959167	2.953406	-0.022469 	0.000929
-88.750000	-0.005790	-2.958333	2.952543	-0.022468 	0.000930
-88.725000	-0.005819	-2.957500	2.951681	-0.022468 	0.000930
-88.700000	-0.005849	-2.956667	2.950818	-0.022467 	0.000930
-88.675000	-0.005878	-2.955833	2.949955	-0.022467 	0.000930
-88.650000	-0.005907	-2.955000	2.949093	-0.022466 	0.000930
-88.625000	-0.005937	-2.954167	2.948230	-0.022466 	0.000930
-88.600000	-0.005966	-2.953333	2.947367	-0.022465 	0.000930
-88.575000	-0.005995	-2.952500	2.946505	-0.022465 	0.000930
-88.550000	-0.006025	-2.951667	2.945642	-0.022464 	0.000931
-88.525000	-0.006054	-2.950833	2.944779	-0.022463 	0.000931
-88.500000	-0.006083	-2.950000	2.943917	-0.022463 	0.000931
-88.475000	-0.006113	-2.949167	2.943054	-0.022462 	0.000931
-88.450000	-0.006142	-2.948333	2.942191	-0.022461 	0.000931
-88.425000	-0.006172	-2.947500	2.941328	-0.022460 	0.000931
-88.400000	-0.006201	-2.946667	2.940466	-0.022459 	0.000931
-88.375000	-0.006230	-2.945833	2.939603	-0.022459 	0.000932
-88.350000	-0.006260	-2.945000	2.938740	-0.022458 	0.000932
-88.325000	-0.006289	-2.944167	2.937878	-0.022457 	0.000932
-88.300000	-0.006318	-2.943333	2.937015	-0.022456 	0.000932
-88.275000	-0.006348	-2.942500	2.936152	-0.022455 	0.000932
-88.250000	-0.006377	-2.941667	2.935290	-0.022454 	0.000932
-88.225000	-0.006406	-2.940833	2.934427	-0.022452 	0.000932
-88.200000	-0.006436	-2.940000	2.933564	-0.022451 	0.000933
-88.175000	-0.006465	-2.939167	2.932702	-0.022450 	0.000933
-88.150000	-0.006494	-2.938333	2.931839	-0.022449 	0.000933
-88.125000	-0.006523	-2.937500	2.930977	-0.022448 	0.000933
-88.100000	-0.006553	-2.936667	2.930114	-0.022446 	0.000933
-88.075000	-0.006582	-2.935833	2.929251	-0.022445 	0.000933
-88.050000	-0.006611	-2.935000	2.928389	-0.022444 	0.000933
-88.025000	-0.006641	-2.934167	2.927526	-0.022442 	0.000933
-88.000000	-0.006670	-2.933333	2.926663	-0.022441 	0.000934
-87.975000	-0.006699	-2.932500	2.925801	-0.022440 	0.000934
-87.950000	-0.006729	-2.931667	2.924938	-0.022438 	0.000934
-87.925000	-0.006758	-2.930833	2.924075	-0.022437 	0.000934
-87.900000	-0.006787	-2.930000	2.923213	-0.022435 	0.000934
-87.875000	-0.006816	-2.929167	2.922351	-0.022434 	0.000934
-87.850000	-0.006846	-2.928333	2.921487	-0.022432 	0.000934
-87.825000	-0.006875	-2.927500	2.920625	-0.022430 	0.000935
-87.800000	-0.006904	-2.926667	2.919763	-0.022429 	0.000935
-87.775000	-0.006933	-2.925833	2.918900	-0.022427 	0.000935
-87.750000	-0.006963	-2.925000	2.918037	-0.022425 	0.000935
-87.725000	-0.006992	-2.924167	2.917175	-0.022423 	0.000935
-87.700000	-0.007021	-2.923333	2.916312	-0.022422 	0.000935
-87.675000	-0.007050	-2.922500	2.915450	-0.022420 	0.000935
-87.650000	-0.007080	-2.921667	2.914587	-0.022418 	0.000936
-87.625000	-0.007109	-2.920833	2.913724	-0.022416 	0.000936
-87.600000	-0.007138	-2.920000	2.912862	-0.022414 	0.000936
-87.575000	-0.007167	-2.919167	2.912000	-0.022412 	0.000936
-87.550000	-0.007197	-2.918333	2.911136	-0.022410 	0.000936
-87.525000	-0.007226	-2.917500	2.910274	-0.022408 	0.000936
-87.500000	-0.007255	-2.916667	2.909412	-0.022406 	0.000936
-87.475000	-0.007284	-2.915833	2.908549	-0.022404 	0.000937