VARIABLES = X,Ksi,B,H,U,tau 
ZONE T="Time 70.000000", I=4400, DATAPACKING=POINT
-100.000000	-0.005166	-3.333333	3.328167	0.036495 	0.000875
-99.975000	-0.003024	-3.332500	3.329476	0.032867 	0.000875
-99.950000	-0.003924	-3.331667	3.327743	0.034459 	0.000876
-99.925000	-0.003513	-3.330833	3.327320	0.033800 	0.000876
-99.900000	-0.003667	-3.330000	3.326333	0.034112 	0.000876
-99.875000	-0.003577	-3.329167	3.325590	0.034005 	0.000876
-99.850000	-0.003592	-3.328333	3.324741	0.034079 	0.000876
-99.825000	-0.003562	-3.327500	3.323938	0.034075 	0.000876
-99.800000	-0.003552	-3.326667	3.323115	0.034104 	0.000876
-99.775000	-0.003533	-3.325833	3.322300	0.034119 	0.000876
-99.750000	-0.003518	-3.325000	3.321482	0.034140 	0.000876
-99.725000	-0.003501	-3.324167	3.320666	0.034158 	0.000876
-99.700000	-0.003485	-3.323333	3.319848	0.034178 	0.000877
-99.675000	-0.003468	-3.322500	3.319032	0.034197 	0.000877
-99.650000	-0.003452	-3.321667	3.318215	0.034216 	0.000877
-99.625000	-0.003435	-3.320833	3.317398	0.034235 	0.000877
-99.600000	-0.003419	-3.320000	3.316581	0.034254 	0.000877
-99.575000	-0.003403	-3.319167	3.315764	0.034273 	0.000877
-99.550000	-0.003386	-3.318333	3.314947	0.034292 	0.000877
-99.525000	-0.003370	-3.317500	3.314130	0.034311 	0.000877
-99.500000	-0.003353	-3.316667	3.313314	0.034330 	0.000877
-99.475000	-0.003337	-3.315833	3.312496	0.034349 	0.000878
-99.450000	-0.003320	-3.315000	3.311680	0.034367 	0.000878
-99.425000	-0.003304	-3.314167	3.310863	0.034386 	0.000878
-99.400000	-0.003287	-3.313333	3.310046	0.034405 	0.000878
-99.375000	-0.003271	-3.312500	3.309229	0.034424 	0.000878
-99.350000	-0.003254	-3.311667	3.308413	0.034442 	0.000878
-99.325000	-0.003238	-3.310833	3.307595	0.034461 	0.000878
-99.300000	-0.003221	-3.310000	3.306779	0.034480 	0.000878
-99.275000	-0.003205	-3.309167	3.305962	0.034498 	0.000878
-99.250000	-0.003188	-3.308333	3.305145	0.034517 	0.000879
-99.225000	-0.003172	-3.307500	3.304328	0.034536 	0.000879
-99.200000	-0.003155	-3.306667	3.303512	0.034554 	0.000879
-99.175000	-0.003138	-3.305833	3.302695	0.034573 	0.000879
-99.150000	-0.003122	-3.305000	3.301878	0.034591 	0.000879
-99.125000	-0.003105	-3.304167	3.301062	0.034609 	0.000879
-99.100000	-0.003089	-3.303333	3.300244	0.034628 	0.000879
-99.075000	-0.003072	-3.302500	3.299428	0.034646 	0.000879
-99.050000	-0.003056	-3.301667	3.298611	0.034665 	0.000879
-99.025000	-0.003039	-3.300833	3.297794	0.034683 	0.000880
-99.000000	-0.003022	-3.300000	3.296978	0.034701 	0.000880
-98.975000	-0.003006	-3.299167	3.296161	0.034719 	0.000880
-98.950000	-0.002989	-3.298333	3.295344	0.034738 	0.000880
-98.925000	-0.002972	-3.297500	3.294528	0.034756 	0.000880
-98.900000	-0.002956	-3.296667	3.293711	0.034774 	0.000880
-98.875000	-0.002939	-3.295833	3.292894	0.034792 	0.000880
-98.850000	-0.002922	-3.295000	3.292078	0.034810 	0.000880
-98.825000	-0.002906	-3.294167	3.291261	0.034828 	0.000880
-98.800000	-0.002889	-3.293333	3.290444	0.034846 	0.000881
-98.775000	-0.002872	-3.292500	3.289628	0.034864 	0.000881
-98.750000	-0.002856	-3.291667	3.288811	0.034882 	0.000881
-98.725000	-0.002839	-3.290833	3.287994	0.034900 	0.000881
-98.700000	-0.002822	-3.290000	3.287178	0.034918 	0.000881
-98.675000	-0.002806	-3.289167	3.286361	0.034936 	0.000881
-98.650000	-0.002789	-3.288333	3.285544	0.034954 	0.000881
-98.625000	-0.002772	-3.287500	3.284728	0.034971 	0.000881
-98.600000	-0.002755	-3.286667	3.283912	0.034989 	0.000881
-98.575000	-0.002739	-3.285833	3.283094	0.035007 	0.000881
-98.550000	-0.002722	-3.285000	3.282278	0.035025 	0.000882
-98.525000	-0.002705	-3.284167	3.281462	0.035042 	0.000882
-98.500000	-0.002688	-3.283333	3.280645	0.035060 	0.000882
-98.475000	-0.002671	-3.282500	3.279829	0.035078 	0.000882
-98.450000	-0.002655	-3.281667	3.279012	0.035095 	0.000882
-98.425000	-0.002638	-3.280833	3.278195	0.035113 	0.000882
-98.400000	-0.002621	-3.280000	3.277379	0.035130 	0.000882
-98.375000	-0.002604	-3.279167	3.276563	0.035148 	0.000882
-98.350000	-0.002587	-3.278333	3.275746	0.035165 	0.000882
-98.325000	-0.002571	-3.277500	3.274929	0.035183 	0.000883
-98.300000	-0.002554	-3.276667	3.274113	0.035200 	0.000883
-98.275000	-0.002537	-3.275833	3.273296	0.035217 	0.000883
-98.250000	-0.002520	-3.275000	3.272480	0.035235 	0.000883
-98.225000	-0.002503	-3.274167	3.271664	0.035252 	0.000883
-98.200000	-0.002486	-3.273333	3.270847	0.035269 	0.000883
-98.175000	-0.002469	-3.272500	3.270031	0.035286 	0.000883
-98.150000	-0.002453	-3.271667	3.269214	0.035304 	0.000883
-98.125000	-0.002436	-3.270833	3.268397	0.035321 	0.000883
-98.100000	-0.002419	-3.270000	3.267581	0.035338 	0.000884
-98.075000	-0.002402	-3.269167	3.266765	0.035355 	0.000884
-98.050000	-0.002385	-3.268333	3.265948	0.035372 	0.000884
-98.025000	-0.002368	-3.267500	3.265132	0.035389 	0.000884
-98.000000	-0.002351	-3.266667	3.264316	0.035406 	0.000884
-97.975000	-0.002334	-3.265833	3.263499	0.035423 	0.000884
-97.950000	-0.002317	-3.265000	3.262683	0.035440 	0.000884
-97.925000	-0.002300	-3.264167	3.261867	0.035457 	0.000884
-97.900000	-0.002283	-3.263333	3.261050	0.035474 	0.000884
-97.875000	-0.002266	-3.262500	3.260234	0.035491 	0.000885
-97.850000	-0.002249	-3.261667	3.259418	0.035507 	0.000885
-97.825000	-0.002232	-3.260833	3.258601	0.035524 	0.000885
-97.800000	-0.002215	-3.260000	3.257785	0.035541 	0.000885
-97.775000	-0.002198	-3.259167	3.256969	0.035558 	0.000885
-97.750000	-0.002181	-3.258333	3.256152	0.035574 	0.000885
-97.725000	-0.002164	-3.257500	3.255336	0.035591 	0.000885
-97.700000	-0.002147	-3.256667	3.254520	0.035607 	0.000885
-97.675000	-0.002130	-3.255833	3.253703	0.035624 	0.000885
-97.650000	-0.002113	-3.255000	3.252887	0.035641 	0.000886
-97.625000	-0.002096	-3.254167	3.252071	0.035657 	0.000886
-97.600000	-0.002079	-3.253333	3.251254	0.035673 	0.000886
-97.575000	-0.002062	-3.252500	3.250438	0.035690 	0.000886
-97.550000	-0.002045	-3.251667	3.249622	0.035706 	0.000886
-97.525000	-0.002028	-3.250833	3.248805	0.035723 	0.000886
-97.500000	-0.002011	-3.250000	3.247989	0.035739 	0.000886
-97.475000	-0.001994	-3.249167	3.247173	0.035755 	0.000886
-97.450000	-0.001977	-3.248333	3.246356	0.035772 	0.000886
-97.425000	-0.001960	-3.247500	3.245540	0.035788 	0.000887
-97.400000	-0.001943	-3.246667	3.244724	0.035804 	0.000887
-97.375000	-0.001926	-3.245833	3.243907	0.035820 	0.000887
-97.350000	-0.001909	-3.245000	3.243091	0.035836 	0.000887
-97.325000	-0.001891	-3.244167	3.242276	0.035852 	0.000887
-97.300000	-0.001874	-3.243333	3.241459	0.035868 	0.000887
-97.275000	-0.001857	-3.242500	3.240643	0.035884 	0.000887
-97.250000	-0.001840	-3.241667	3.239827	0.035900 	0.000887
-97.225000	-0.001823	-3.240833	3.239010	0.035916 	0.000887
-97.200000	-0.001806	-3.240000	3.238194	0.035932 	0.000888
-97.175000	-0.001789	-3.239167	3.237378	0.035948 	0.000888
-97.150000	-0.001771	-3.238333	3.236562	0.035964 	0.000888
-97.125000	-0.001754	-3.237500	3.235746	0.035980 	0.000888
-97.100000	-0.001737	-3.236667	3.234930	0.035996 	0.000888
-97.075000	-0.001720	-3.235833	3.234113	0.036011 	0.000888
-97.050000	-0.001703	-3.235000	3.233297	0.036027 	0.000888
-97.025000	-0.001685	-3.234167	3.232482	0.036043 	0.000888
-97.000000	-0.001668	-3.233333	3.231665	0.036058 	0.000888
-96.975000	-0.001651	-3.232500	3.230849	0.036074 	0.000889
-96.950000	-0.001634	-3.231667	3.230033	0.036090 	0.000889
-96.925000	-0.001617	-3.230833	3.229216	0.036105 	0.000889
-96.900000	-0.001599	-3.230000	3.228401	0.036121 	0.000889
-96.875000	-0.001582	-3.229167	3.227585	0.036136 	0.000889
-96.850000	-0.001565	-3.228333	3.226768	0.036152 	0.000889
-96.825000	-0.001548	-3.227500	3.225952	0.036167 	0.000889
-96.800000	-0.001530	-3.226667	3.225137	0.036182 	0.000889
-96.775000	-0.001513	-3.225833	3.224320	0.036198 	0.000889
-96.750000	-0.001496	-3.225000	3.223504	0.036213 	0.000890
-96.725000	-0.001479	-3.224167	3.222688	0.036228 	0.000890
-96.700000	-0.001461	-3.223333	3.221872	0.036243 	0.000890
-96.675000	-0.001444	-3.222500	3.221056	0.036259 	0.000890
-96.650000	-0.001427	-3.221667	3.220240	0.036274 	0.000890
-96.625000	-0.001409	-3.220833	3.219424	0.036289 	0.000890
-96.600000	-0.001392	-3.220000	3.218608	0.036304 	0.000890
-96.575000	-0.001375	-3.219167	3.217792	0.036319 	0.000890
-96.550000	-0.001357	-3.218333	3.216976	0.036334 	0.000890
-96.525000	-0.001340	-3.217500	3.216160	0.036349 	0.000891
-96.500000	-0.001323	-3.216667	3.215344	0.036364 	0.000891
-96.475000	-0.001305	-3.215833	3.214528	0.036379 	0.000891
-96.450000	-0.001288	-3.215000	3.213712	0.036394 	0.000891
-96.425000	-0.001271	-3.214167	3.212896	0.036408 	0.000891
-96.400000	-0.001253	-3.213333	3.212080	0.036423 	0.000891
-96.375000	-0.001236	-3.212500	3.211264	0.036438 	0.000891
-96.350000	-0.001219	-3.211667	3.210448	0.036453 	0.000891
-96.325000	-0.001201	-3.210833	3.209632	0.036467 	0.000892
-96.300000	-0.001184	-3.210000	3.208816	0.036482 	0.000892
-96.275000	-0.001166	-3.209167	3.208001	0.036497 	0.000892
-96.250000	-0.001149	-3.208333	3.207184	0.036511 	0.000892
-96.225000	-0.001132	-3.207500	3.206368	0.036526 	0.000892
-96.200000	-0.001114	-3.206667	3.205553	0.036540 	0.000892
-96.175000	-0.001097	-3.205833	3.204736	0.036555 	0.000892
-96.150000	-0.001079	-3.205000	3.203921	0.036569 	0.000892
-96.125000	-0.001062	-3.204167	3.203105	0.036584 	0.000892
-96.100000	-0.001045	-3.203333	3.202288	0.036598 	0.000893
-96.075000	-0.001027	-3.202500	3.201473	0.036612 	0.000893
-96.050000	-0.001010	-3.201667	3.200657	0.036627 	0.000893
-96.025000	-0.000992	-3.200833	3.199841	0.036641 	0.000893
-96.000000	-0.000975	-3.200000	3.199025	0.036655 	0.000893
-95.975000	-0.000957	-3.199167	3.198210	0.036669 	0.000893
-95.950000	-0.000940	-3.198333	3.197393	0.036683 	0.000893
-95.925000	-0.000922	-3.197500	3.196578	0.036697 	0.000893
-95.900000	-0.000905	-3.196667	3.195762	0.036711 	0.000893
-95.875000	-0.000887	-3.195833	3.194946	0.036725 	0.000894
-95.850000	-0.000870	-3.195000	3.194130	0.036739 	0.000894
-95.825000	-0.000852	-3.194167	3.193315	0.036753 	0.000894
-95.800000	-0.000835	-3.193333	3.192498	0.036767 	0.000894
-95.775000	-0.000817	-3.192500	3.191683	0.036781 	0.000894
-95.750000	-0.000800	-3.191667	3.190867	0.036795 	0.000894
-95.725000	-0.000782	-3.190833	3.190051	0.036809 	0.000894
-95.700000	-0.000765	-3.190000	3.189235	0.036822 	0.000894
-95.675000	-0.000747	-3.189167	3.188420	0.036836 	0.000894
-95.650000	-0.000730	-3.188333	3.187603	0.036850 	0.000895
-95.625000	-0.000712	-3.187500	3.186788	0.036864 	0.000895
-95.600000	-0.000694	-3.186667	3.185973	0.036877 	0.000895
-95.575000	-0.000677	-3.185833	3.185156	0.036891 	0.000895
-95.550000	-0.000659	-3.185000	3.184341	0.036904 	0.000895
-95.525000	-0.000642	-3.184167	3.183525	0.036918 	0.000895
-95.500000	-0.000624	-3.183333	3.182709	0.036931 	0.000895
-95.475000	-0.000607	-3.182500	3.181893	0.036945 	0.000895
-95.450000	-0.000589	-3.181667	3.181078	0.036958 	0.000896
-95.425000	-0.000571	-3.180833	3.180262	0.036971 	0.000896
-95.400000	-0.000554	-3.180000	3.179446	0.036985 	0.000896
-95.375000	-0.000536	-3.179167	3.178631	0.036998 	0.000896
-95.350000	-0.000518	-3.178333	3.177815	0.037011 	0.000896
-95.325000	-0.000501	-3.177500	3.176999	0.037024 	0.000896
-95.300000	-0.000483	-3.176667	3.176184	0.037037 	0.000896
-95.275000	-0.000466	-3.175833	3.175367	0.037050 	0.000896
-95.250000	-0.000448	-3.175000	3.174552	0.037064 	0.000896
-95.225000	-0.000430	-3.174167	3.173737	0.037077 	0.000897
-95.200000	-0.000413	-3.173333	3.172920	0.037090 	0.000897
-95.175000	-0.000395	-3.172500	3.172105	0.037102 	0.000897
-95.150000	-0.000377	-3.171667	3.171290	0.037115 	0.000897
-95.125000	-0.000360	-3.170833	3.170473	0.037128 	0.000897
-95.100000	-0.000342	-3.170000	3.169658	0.037141 	0.000897
-95.075000	-0.000324	-3.169167	3.168843	0.037154 	0.000897
-95.050000	-0.000306	-3.168333	3.168027	0.037167 	0.000897
-95.025000	-0.000289	-3.167500	3.167211	0.037179 	0.000897
-95.000000	-0.000271	-3.166667	3.166396	0.037192 	0.000898
-94.975000	-0.000253	-3.165833	3.165580	0.037205 	0.000898
-94.950000	-0.000236	-3.165000	3.164764	0.037217 	0.000898
-94.925000	-0.000218	-3.164167	3.163949	0.037230 	0.000898
-94.900000	-0.000200	-3.163333	3.163133	0.037242 	0.000898
-94.875000	-0.000182	-3.162500	3.162318	0.037255 	0.000898
-94.850000	-0.000165	-3.161667	3.161502	0.037267 	0.000898
-94.825000	-0.000147	-3.160833	3.160686	0.037279 	0.000898
-94.800000	-0.000129	-3.160000	3.159871	0.037292 	0.000899
-94.775000	-0.000111	-3.159167	3.159056	0.037304 	0.000899
-94.750000	-0.000094	-3.158333	3.158239	0.037316 	0.000899
-94.725000	-0.000076	-3.157500	3.157424	0.037328 	0.000899
-94.700000	-0.000058	-3.156667	3.156609	0.037341 	0.000899
-94.675000	-0.000040	-3.155833	3.155793	0.037353 	0.000899
-94.650000	-0.000022	-3.155000	3.154978	0.037365 	0.000899
-94.625000	-0.000005	-3.154167	3.154162	0.037377 	0.000899
-94.600000	0.000013	-3.153333	3.153346	0.037389 	0.000899
-94.575000	0.000031	-3.152500	3.152531	0.037401 	0.000900
-94.550000	0.000049	-3.151667	3.151716	0.037413 	0.000900
-94.525000	0.000067	-3.150833	3.150900	0.037425 	0.000900
-94.500000	0.000085	-3.150000	3.150085	0.037436 	0.000900
-94.475000	0.000102	-3.149167	3.149269	0.037448 	0.000900
-94.450000	0.000120	-3.148333	3.148453	0.037460 	0.000900
-94.425000	0.000138	-3.147500	3.147638	0.037472 	0.000900
-94.400000	0.000156	-3.146667	3.146823	0.037483 	0.000900
-94.375000	0.000174	-3.145833	3.146007	0.037495 	0.000900
-94.350000	0.000192	-3.145000	3.145192	0.037507 	0.000901
-94.325000	0.000210	-3.144167	3.144377	0.037518 	0.000901
-94.300000	0.000228	-3.143333	3.143561	0.037530 	0.000901
-94.275000	0.000245	-3.142500	3.142745	0.037541 	0.000901
-94.250000	0.000263	-3.141667	3.141930	0.037552 	0.000901
-94.225000	0.000281	-3.140833	3.141114	0.037564 	0.000901
-94.200000	0.000299	-3.140000	3.140299	0.037575 	0.000901
-94.175000	0.000317	-3.139167	3.139484	0.037586 	0.000901
-94.150000	0.000335	-3.138333	3.138668	0.037598 	0.000902
-94.125000	0.000353	-3.137500	3.137853	0.037609 	0.000902
-94.100000	0.000371	-3.136667	3.137038	0.037620 	0.000902
-94.075000	0.000389	-3.135833	3.136222	0.037631 	0.000902
-94.050000	0.000407	-3.135000	3.135407	0.037642 	0.000902
-94.025000	0.000425	-3.134167	3.134592	0.037653 	0.000902
-94.000000	0.000443	-3.133333	3.133776	0.037664 	0.000902
-93.975000	0.000461	-3.132500	3.132961	0.037675 	0.000902
-93.950000	0.000479	-3.131667	3.132146	0.037686 	0.000902
-93.925000	0.000497	-3.130833	3.131330	0.037697 	0.000903
-93.900000	0.000515	-3.130000	3.130515	0.037707 	0.000903
-93.875000	0.000533	-3.129167	3.129700	0.037718 	0.000903
-93.850000	0.000551	-3.128333	3.128884	0.037729 	0.000903
-93.825000	0.000569	-3.127500	3.128069	0.037739 	0.000903
-93.800000	0.000587	-3.126667	3.127254	0.037750 	0.000903
-93.775000	0.000605	-3.125833	3.126438	0.037760 	0.000903
-93.750000	0.000623	-3.125000	3.125623	0.037771 	0.000903
-93.725000	0.000641	-3.124167	3.124808	0.037781 	0.000904
-93.700000	0.000659	-3.123333	3.123992	0.037792 	0.000904
-93.675000	0.000677	-3.122500	3.123177	0.037802 	0.000904
-93.650000	0.000695	-3.121667	3.122362	0.037812 	0.000904
-93.625000	0.000713	-3.120833	3.121546	0.037823 	0.000904
-93.600000	0.000732	-3.120000	3.120732	0.037833 	0.000904
-93.575000	0.000750	-3.119167	3.119917	0.037843 	0.000904
-93.550000	0.000768	-3.118333	3.119101	0.037853 	0.000904
-93.525000	0.000786	-3.117500	3.118286	0.037863 	0.000904
-93.500000	0.000804	-3.116667	3.117471	0.037873 	0.000905
-93.475000	0.000822	-3.115833	3.116655	0.037883 	0.000905
-93.450000	0.000840	-3.115000	3.115840	0.037893 	0.000905
-93.425000	0.000858	-3.114167	3.115025	0.037903 	0.000905
-93.400000	0.000877	-3.113333	3.114210	0.037913 	0.000905
-93.375000	0.000895	-3.112500	3.113395	0.037923 	0.000905
-93.350000	0.000913	-3.111667	3.112580	0.037932 	0.000905
-93.325000	0.000931	-3.110833	3.111764	0.037942 	0.000905
-93.300000	0.000949	-3.110000	3.110949	0.037952 	0.000906
-93.275000	0.000968	-3.109167	3.110135	0.037961 	0.000906
-93.250000	0.000986	-3.108333	3.109319	0.037971 	0.000906
-93.225000	0.001004	-3.107500	3.108504	0.037980 	0.000906
-93.200000	0.001022	-3.106667	3.107689	0.037990 	0.000906
-93.175000	0.001040	-3.105833	3.106873	0.037999 	0.000906
-93.150000	0.001059	-3.105000	3.106059	0.038009 	0.000906
-93.125000	0.001077	-3.104167	3.105244	0.038018 	0.000906
-93.100000	0.001095	-3.103333	3.104428	0.038027 	0.000906
-93.075000	0.001113	-3.102500	3.103613	0.038036 	0.000907
-93.050000	0.001132	-3.101667	3.102799	0.038045 	0.000907
-93.025000	0.001150	-3.100833	3.101983	0.038054 	0.000907
-93.000000	0.001168	-3.100000	3.101168	0.038063 	0.000907
-92.975000	0.001187	-3.099167	3.100354	0.038072 	0.000907
-92.950000	0.001205	-3.098333	3.099538	0.038081 	0.000907
-92.925000	0.001223	-3.097500	3.098723	0.038090 	0.000907
-92.900000	0.001242	-3.096667	3.097909	0.038099 	0.000907
-92.875000	0.001260	-3.095833	3.097093	0.038108 	0.000908
-92.850000	0.001278	-3.095000	3.096278	0.038117 	0.000908
-92.825000	0.001297	-3.094167	3.095464	0.038125 	0.000908
-92.800000	0.001315	-3.093333	3.094648	0.038134 	0.000908
-92.775000	0.001333	-3.092500	3.093833	0.038142 	0.000908
-92.750000	0.001352	-3.091667	3.093019	0.038151 	0.000908
-92.725000	0.001370	-3.090833	3.092203	0.038159 	0.000908
-92.700000	0.001388	-3.090000	3.091388	0.038168 	0.000908
-92.675000	0.001407	-3.089167	3.090574	0.038176 	0.000909
-92.650000	0.001425	-3.088333	3.089758	0.038185 	0.000909
-92.625000	0.001444	-3.087500	3.088944	0.038193 	0.000909
-92.600000	0.001462	-3.086667	3.088129	0.038201 	0.000909
-92.575000	0.001481	-3.085833	3.087314	0.038209 	0.000909
-92.550000	0.001499	-3.085000	3.086499	0.038217 	0.000909
-92.525000	0.001517	-3.084167	3.085684	0.038225 	0.000909
-92.500000	0.001536	-3.083333	3.084869	0.038233 	0.000909
-92.475000	0.001554	-3.082500	3.084054	0.038241 	0.000909
-92.450000	0.001573	-3.081667	3.083240	0.038249 	0.000910
-92.425000	0.001591	-3.080833	3.082424	0.038257 	0.000910
-92.400000	0.001610	-3.080000	3.081610	0.038265 	0.000910
-92.375000	0.001628	-3.079167	3.080795	0.038272 	0.000910
-92.350000	0.001647	-3.078333	3.079980	0.038280 	0.000910
-92.325000	0.001665	-3.077500	3.079165	0.038288 	0.000910
-92.300000	0.001684	-3.076667	3.078351	0.038295 	0.000910
-92.275000	0.001702	-3.075833	3.077535	0.038303 	0.000910
-92.250000	0.001721	-3.075000	3.076721	0.038310 	0.000911
-92.225000	0.001740	-3.074167	3.075907	0.038318 	0.000911
-92.200000	0.001758	-3.073333	3.075091	0.038325 	0.000911
-92.175000	0.001777	-3.072500	3.074277	0.038332 	0.000911
-92.150000	0.001795	-3.071667	3.073462	0.038339 	0.000911
-92.125000	0.001814	-3.070833	3.072647	0.038347 	0.000911
-92.100000	0.001833	-3.070000	3.071833	0.038354 	0.000911
-92.075000	0.001851	-3.069167	3.071018	0.038361 	0.000911
-92.050000	0.001870	-3.068333	3.070203	0.038368 	0.000912
-92.025000	0.001888	-3.067500	3.069388	0.038375 	0.000912
-92.000000	0.001907	-3.066667	3.068574	0.038382 	0.000912
-91.975000	0.001926	-3.065833	3.067759	0.038388 	0.000912
-91.950000	0.001944	-3.065000	3.066944	0.038395 	0.000912
-91.925000	0.001963	-3.064167	3.066130	0.038402 	0.000912
-91.900000	0.001982	-3.063333	3.065315	0.038409 	0.000912
-91.875000	0.002000	-3.062500	3.064500	0.038415 	0.000912
-91.850000	0.002019	-3.061667	3.063686	0.038422 	0.000913
-91.825000	0.002038	-3.060833	3.062871	0.038428 	0.000913
-91.800000	0.002057	-3.060000	3.062057	0.038435 	0.000913
-91.775000	0.002075	-3.059167	3.061242	0.038441 	0.000913
-91.750000	0.002094	-3.058333	3.060427	0.038447 	0.000913
-91.725000	0.002113	-3.057500	3.059613	0.038454 	0.000913
-91.700000	0.002131	-3.056667	3.058798	0.038460 	0.000913
-91.675000	0.002150	-3.055833	3.057983	0.038466 	0.000913
-91.650000	0.002169	-3.055000	3.057169	0.038472 	0.000913
-91.625000	0.002188	-3.054167	3.056355	0.038478 	0.000914
-91.600000	0.002207	-3.053333	3.055540	0.038484 	0.000914
-91.575000	0.002225	-3.052500	3.054725	0.038490 	0.000914
-91.550000	0.002244	-3.051667	3.053911	0.038496 	0.000914
-91.525000	0.002263	-3.050833	3.053096	0.038502 	0.000914
-91.500000	0.002282	-3.050000	3.052282	0.038508 	0.000914
-91.475000	0.002301	-3.049167	3.051468	0.038513 	0.000914
-91.450000	0.002320	-3.048333	3.050653	0.038519 	0.000914
-91.425000	0.002338	-3.047500	3.049838	0.038525 	0.000915
-91.400000	0.002357	-3.046667	3.049024	0.038530 	0.000915
-91.375000	0.002376	-3.045833	3.048209	0.038536 	0.000915
-91.350000	0.002395	-3.045000	3.047395	0.038541 	0.000915
-91.325000	0.002414	-3.044167	3.046581	0.038546 	0.000915
-91.300000	0.002433	-3.043333	3.045766	0.038552 	0.000915
-91.275000	0.002452	-3.042500	3.044952	0.038557 	0.000915
-91.250000	0.002471	-3.041667	3.044138	0.038562 	0.000915
-91.225000	0.002490	-3.040833	3.043323	0.038567 	0.000916
-91.200000	0.002509	-3.040000	3.042509	0.038573 	0.000916
-91.175000	0.002527	-3.039167	3.041694	0.038578 	0.000916
-91.150000	0.002546	-3.038333	3.040879	0.038583 	0.000916
-91.125000	0.002565	-3.037500	3.040065	0.038587 	0.000916
-91.100000	0.002584	-3.036667	3.039251	0.038592 	0.000916
-91.075000	0.002603	-3.035833	3.038436	0.038597 	0.000916
-91.050000	0.002622	-3.035000	3.037622	0.038602 	0.000916
-91.025000	0.002641	-3.034167	3.036808	0.038607 	0.000917
-91.000000	0.002660	-3.033333	3.035993	0.038611 	0.000917
-90.975000	0.002679	-3.032500	3.035179	0.038616 	0.000917
-90.950000	0.002698	-3.031667	3.034365	0.038620 	0.000917
-90.925000	0.002717	-3.030833	3.033550	0.038625 	0.000917
-90.900000	0.002736	-3.030000	3.032736	0.038629 	0.000917
-90.875000	0.002755	-3.029167	3.031922	0.038633 	0.000917
-90.850000	0.002774	-3.028333	3.031107	0.038638 	0.000917
-90.825000	0.002793	-3.027500	3.030293	0.038642 	0.000918
-90.800000	0.002812	-3.026667	3.029479	0.038646 	0.000918
-90.775000	0.002832	-3.025833	3.028665	0.038650 	0.000918
-90.750000	0.002851	-3.025000	3.027851	0.038654 	0.000918
-90.725000	0.002870	-3.024167	3.027037	0.038658 	0.000918
-90.700000	0.002889	-3.023333	3.026222	0.038662 	0.000918
-90.675000	0.002908	-3.022500	3.025408	0.038666 	0.000918
-90.650000	0.002927	-3.021667	3.024594	0.038670 	0.000918
-90.625000	0.002946	-3.020833	3.023779	0.038674 	0.000919
-90.600000	0.002965	-3.020000	3.022965	0.038678 	0.000919
-90.575000	0.002984	-3.019167	3.022151	0.038681 	0.000919
-90.550000	0.003003	-3.018333	3.021336	0.038685 	0.000919
-90.525000	0.003022	-3.017500	3.020522	0.038688 	0.000919
-90.500000	0.003042	-3.016667	3.019709	0.038692 	0.000919
-90.475000	0.003061	-3.015833	3.018894	0.038695 	0.000919
-90.450000	0.003080	-3.015000	3.018080	0.038699 	0.000919
-90.425000	0.003099	-3.014167	3.017266	0.038702 	0.000919
-90.400000	0.003118	-3.013333	3.016451	0.038705 	0.000920
-90.375000	0.003137	-3.012500	3.015637	0.038709 	0.000920
-90.350000	0.003156	-3.011667	3.014823	0.038712 	0.000920
-90.325000	0.003176	-3.010833	3.014009	0.038715 	0.000920
-90.300000	0.003195	-3.010000	3.013195	0.038718 	0.000920
-90.275000	0.003214	-3.009167	3.012381	0.038721 	0.000920
-90.250000	0.003233	-3.008333	3.011566	0.038724 	0.000920
-90.225000	0.003252	-3.007500	3.010752	0.038727 	0.000920
-90.200000	0.003272	-3.006667	3.009939	0.038730 	0.000921
-90.175000	0.003291	-3.005833	3.009124	0.038732 	0.000921
-90.150000	0.003310	-3.005000	3.008310	0.038735 	0.000921
-90.125000	0.003329	-3.004167	3.007496	0.038738 	0.000921
-90.100000	0.003348	-3.003333	3.006681	0.038740 	0.000921
-90.075000	0.003368	-3.002500	3.005868	0.038743 	0.000921
-90.050000	0.003387	-3.001667	3.005054	0.038745 	0.000921
-90.025000	0.003406	-3.000833	3.004239	0.038748 	0.000921
-90.000000	0.003425	-3.000000	3.003425	0.038750 	0.000922
-89.975000	0.003445	-2.999167	3.002612	0.038753 	0.000922
-89.950000	0.003464	-2.998333	3.001797	0.038755 	0.000922
-89.925000	0.003483	-2.997500	3.000983	0.038757 	0.000922
-89.900000	0.003502	-2.996667	3.000169	0.038759 	0.000922
-89.875000	0.003522	-2.995833	2.999355	0.038761 	0.000922
-89.850000	0.003541	-2.995000	2.998541	0.038763 	0.000922
-89.825000	0.003560	-2.994167	2.997727	0.038765 	0.000922
-89.800000	0.003579	-2.993333	2.996912	0.038767 	0.000923
-89.775000	0.003599	-2.992500	2.996099	0.038769 	0.000923
-89.750000	0.003618	-2.991667	2.995285	0.038771 	0.000923
-89.725000	0.003637	-2.990833	2.994470	0.038773 	0.000923
-89.700000	0.003657	-2.990000	2.993657	0.038775 	0.000923
-89.675000	0.003676	-2.989167	2.992843	0.038776 	0.000923
-89.650000	0.003695	-2.988333	2.992028	0.038778 	0.000923
-89.625000	0.003714	-2.987500	2.991214	0.038780 	0.000923
-89.600000	0.003734	-2.986667	2.990401	0.038781 	0.000924
-89.575000	0.003753	-2.985833	2.989586	0.038782 	0.000924
-89.550000	0.003772	-2.985000	2.988772	0.038784 	0.000924
-89.525000	0.003792	-2.984167	2.987959	0.038785 	0.000924
-89.500000	0.003811	-2.983333	2.987144	0.038787 	0.000924
-89.475000	0.003830	-2.982500	2.986330	0.038788 	0.000924
-89.450000	0.003850	-2.981667	2.985517	0.038789 	0.000924
-89.425000	0.003869	-2.980833	2.984702	0.038790 	0.000924
-89.400000	0.003888	-2.980000	2.983888	0.038791 	0.000925
-89.375000	0.003908	-2.979167	2.983075	0.038792 	0.000925
-89.350000	0.003927	-2.978333	2.982260	0.038793 	0.000925
-89.325000	0.003946	-2.977500	2.981446	0.038794 	0.000925
-89.300000	0.003966	-2.976667	2.980633	0.038795 	0.000925
-89.275000	0.003985	-2.975833	2.979818	0.038796 	0.000925
-89.250000	0.004004	-2.975000	2.979004	0.038797 	0.000925
-89.225000	0.004024	-2.974167	2.978191	0.038797 	0.000926
-89.200000	0.004043	-2.973333	2.977376	0.038798 	0.000926
-89.175000	0.004062	-2.972500	2.976562	0.038799 	0.000926
-89.150000	0.004082	-2.971667	2.975749	0.038799 	0.000926
-89.125000	0.004101	-2.970833	2.974934	0.038800 	0.000926
-89.100000	0.004120	-2.970000	2.974120	0.038800 	0.000926
-89.075000	0.004140	-2.969167	2.973307	0.038800 	0.000926
-89.050000	0.004159	-2.968333	2.972492	0.038801 	0.000926
-89.025000	0.004178	-2.967500	2.971678	0.038801 	0.000927
-89.000000	0.004198	-2.966667	2.970865	0.038801 	0.000927
-88.975000	0.004217	-2.965833	2.970050	0.038802 	0.000927
-88.950000	0.004236	-2.965000	2.969236	0.038802 	0.000927
-88.925000	0.004256	-2.964167	2.968423	0.038802 	0.000927
-88.900000	0.004275	-2.963333	2.967608	0.038802 	0.000927
-88.875000	0.004295	-2.962500	2.966795	0.038802 	0.000927
-88.850000	0.004314	-2.961667	2.965981	0.038802 	0.000927
-88.825000	0.004333	-2.960833	2.965166	0.038801 	0.000928
-88.800000	0.004353	-2.960000	2.964353	0.038801 	0.000928
-88.775000	0.004372	-2.959167	2.963539	0.038801 	0.000928
-88.750000	0.004391	-2.958333	2.962724	0.038801 	0.000928
-88.725000	0.004411	-2.957500	2.961911	0.038800 	0.000928
-88.700000	0.004430	-2.956667	2.961097	0.038800 	0.000928
-88.675000	0.004449	-2.955833	2.960282	0.038799 	0.000928
-88.650000	0.004469	-2.955000	2.959469	0.038799 	0.000928
-88.625000	0.004488	-2.954167	2.958655	0.038798 	0.000929
-88.600000	0.004508	-2.953333	2.957841	0.038798 	0.000929
-88.575000	0.004527	-2.952500	2.957027	0.038797 	0.000929
-88.550000	0.004546	-2.951667	2.956213	0.038796 	0.000929
-88.525000	0.004566	-2.950833	2.955399	0.038795 	0.000929
-88.500000	0.004585	-2.950000	2.954585	0.038795 	0.000929
-88.475000	0.004605	-2.949167	2.953772	0.038794 	0.000929
-88.450000	0.004624	-2.948333	2.952957	0.038793 	0.000929
-88.425000	0.004643	-2.947500	2.952143	0.038792 	0.000930
-88.400000	0.004663	-2.946667	2.951330	0.038791 	0.000930
-88.375000	0.004682	-2.945833	2.950515	0.038790 	0.000930
-88.350000	0.004702	-2.945000	2.949702	0.038788 	0.000930
-88.325000	0.004721	-2.944167	2.948888	0.038787 	0.000930
-88.300000	0.004740	-2.943333	2.948073	0.038786 	0.000930
-88.275000	0.004760	-2.942500	2.947260	0.038784 	0.000930
-88.250000	0.004779	-2.941667	2.946446	0.038783 	0.000930
-88.225000	0.004798	-2.940833	2.945631	0.038782 	0.000931
-88.200000	0.004818	-2.940000	2.944818	0.038780 	0.000931
-88.175000	0.004837	-2.939167	2.944004	0.038779 	0.000931
-88.150000	0.004857	-2.938333	2.943190	0.038777 	0.000931
-88.125000	0.004876	-2.937500	2.942376	0.038775 	0.000931
-88.100000	0.004895	-2.936667	2.941562	0.038774 	0.000931
-88.075000	0.004915	-2.935833	2.940748	0.038772 	0.000931
-88.050000	0.004934	-2.935000	2.939934	0.038770 	0.000932
-88.025000	0.004954	-2.934167	2.939121	0.038768 	0.000932
-88.000000	0.004973	-2.933333	2.938306	0.038766 	0.000932
-87.975000	0.004992	-2.932500	2.937492	0.038764 	0.000932
-87.950000	0.005012	-2.931667	2.936679	0.038762 	0.000932
-87.925000	0.005031	-2.930833	2.935864	0.038760 	0.000932
-87.900000	0.005051	-2.930000	2.935051	0.038758 	0.000932
-87.875000	0.005070	-2.929167	2.934237	0.038756 	0.000932
-87.850000	0.005089	-2.928333	2.933422	0.038753 	0.000933
-87.825000	0.005109	-2.927500	2.932609	0.038751 	0.000933
-87.800000	0.005128	-2.926667	2.931795	0.038749 	0.000933
-87.775000	0.005148	-2.925833	2.930981	0.038746 	0.000933
-87.750000	0.005167	-2.925000	2.930167	0.038744 	0.000933
-87.725000	0.005186	-2.924167	2.929353	0.038741 	0.000933
-87.700000	0.005206	-2.923333	2.928539	0.038739 	0.000933
-87.675000	0.005225	-2.922500	2.927725	0.038736 	0.000933
-87.650000	0.005245	-2.921667	2.926912	0.038733 	0.000934
-87.625000	0.005264	-2.920833	2.926097	0.038730 	0.000934
-87.600000	0.005283	-2.920000	2.925283	0.038728 	0.000934
-87.575000	0.005303	-2.919167	2.924470	0.038725 	0.000934
-87.550000	0.005322	-2.918333	2.923655	0.038722 	0.000934
-87.525000	0.005342	-2.917500	2.922842	0.038719 	0.000934
-87.500000	0.005361	-2.916667	2.922028	0.038716 	0.000934
-87.475000	0.005380	-2.915833	2.921213	0.038713 	0.000934
-87.450000	0.005400	-2.915000	2.920400	0.038709 	0.000935
-87.425000	0.005419	-2.914167	2.919586	0.038706 	0.000935
-87.400000	0.005439	-2.913333	2.918772	0.038703 	0.000935
-87.375000	0.005458	-2.912500	2.917958	0.038700 	0.000935
-87.350000	0.005477	-2.911667	2.917144	0.038696 	0.000935
-87.325000	0.005497	-2.910833	2.916330	0.038693 	0.000935
-87.300000	0.005516	-2.910000	2.915516	0.038689 	0.000935
-87.275000	0.005536	-2.909167	2.914703	0.038686 	0.000936
-87.250000	0.005555	-2.908333	2.913888	0.038682 	0.000936
-87.225000	0.005574	-2.907500	2.913074	0.038679 	0.000936