VARIABLES = X,Ksi,B,H,U,tau 
ZONE T="Time 10.000000", I=4400, DATAPACKING=POINT
-100.000000	0.007406	-3.333333	3.340739	-0.025284 	0.000874
-99.975000	0.006341	-3.332500	3.338841	-0.023514 	0.000874
-99.950000	0.006762	-3.331667	3.338429	-0.024291 	0.000874
-99.925000	0.006548	-3.330833	3.337381	-0.023981 	0.000874
-99.900000	0.006605	-3.330000	3.336605	-0.024136 	0.000874
-99.875000	0.006547	-3.329167	3.335714	-0.024092 	0.000875
-99.850000	0.006538	-3.328333	3.334871	-0.024132 	0.000875
-99.825000	0.006508	-3.327500	3.334008	-0.024136 	0.000875
-99.800000	0.006486	-3.326667	3.333153	-0.024156 	0.000875
-99.775000	0.006461	-3.325833	3.332294	-0.024169 	0.000875
-99.750000	0.006438	-3.325000	3.331438	-0.024185 	0.000875
-99.725000	0.006414	-3.324167	3.330581	-0.024200 	0.000875
-99.700000	0.006390	-3.323333	3.329723	-0.024215 	0.000875
-99.675000	0.006366	-3.322500	3.328866	-0.024230 	0.000875
-99.650000	0.006342	-3.321667	3.328009	-0.024245 	0.000876
-99.625000	0.006318	-3.320833	3.327151	-0.024260 	0.000876
-99.600000	0.006294	-3.320000	3.326294	-0.024275 	0.000876
-99.575000	0.006270	-3.319167	3.325437	-0.024290 	0.000876
-99.550000	0.006246	-3.318333	3.324579	-0.024305 	0.000876
-99.525000	0.006222	-3.317500	3.323722	-0.024320 	0.000876
-99.500000	0.006198	-3.316667	3.322865	-0.024335 	0.000876
-99.475000	0.006174	-3.315833	3.322007	-0.024350 	0.000876
-99.450000	0.006150	-3.315000	3.321150	-0.024365 	0.000876
-99.425000	0.006126	-3.314167	3.320293	-0.024380 	0.000877
-99.400000	0.006102	-3.313333	3.319435	-0.024394 	0.000877
-99.375000	0.006078	-3.312500	3.318578	-0.024409 	0.000877
-99.350000	0.006054	-3.311667	3.317721	-0.024424 	0.000877
-99.325000	0.006030	-3.310833	3.316863	-0.024439 	0.000877
-99.300000	0.006006	-3.310000	3.316006	-0.024453 	0.000877
-99.275000	0.005982	-3.309167	3.315149	-0.024468 	0.000877
-99.250000	0.005957	-3.308333	3.314290	-0.024482 	0.000877
-99.225000	0.005933	-3.307500	3.313433	-0.024497 	0.000877
-99.200000	0.005909	-3.306667	3.312576	-0.024512 	0.000878
-99.175000	0.005885	-3.305833	3.311718	-0.024526 	0.000878
-99.150000	0.005861	-3.305000	3.310861	-0.024541 	0.000878
-99.125000	0.005836	-3.304167	3.310003	-0.024555 	0.000878
-99.100000	0.005812	-3.303333	3.309145	-0.024570 	0.000878
-99.075000	0.005788	-3.302500	3.308288	-0.024584 	0.000878
-99.050000	0.005764	-3.301667	3.307431	-0.024599 	0.000878
-99.025000	0.005739	-3.300833	3.306572	-0.024613 	0.000878
-99.000000	0.005715	-3.300000	3.305715	-0.024627 	0.000878
-98.975000	0.005691	-3.299167	3.304858	-0.024642 	0.000879
-98.950000	0.005666	-3.298333	3.303999	-0.024656 	0.000879
-98.925000	0.005642	-3.297500	3.303142	-0.024670 	0.000879
-98.900000	0.005618	-3.296667	3.302285	-0.024685 	0.000879
-98.875000	0.005593	-3.295833	3.301426	-0.024699 	0.000879
-98.850000	0.005569	-3.295000	3.300569	-0.024713 	0.000879
-98.825000	0.005545	-3.294167	3.299712	-0.024727 	0.000879
-98.800000	0.005520	-3.293333	3.298853	-0.024741 	0.000879
-98.775000	0.005496	-3.292500	3.297996	-0.024755 	0.000879
-98.750000	0.005471	-3.291667	3.297138	-0.024770 	0.000880
-98.725000	0.005447	-3.290833	3.296280	-0.024784 	0.000880
-98.700000	0.005423	-3.290000	3.295423	-0.024798 	0.000880
-98.675000	0.005398	-3.289167	3.294565	-0.024812 	0.000880
-98.650000	0.005374	-3.288333	3.293707	-0.024826 	0.000880
-98.625000	0.005349	-3.287500	3.292849	-0.024840 	0.000880
-98.600000	0.005325	-3.286667	3.291992	-0.024854 	0.000880
-98.575000	0.005300	-3.285833	3.291133	-0.024868 	0.000880
-98.550000	0.005275	-3.285000	3.290275	-0.024881 	0.000881
-98.525000	0.005251	-3.284167	3.289418	-0.024895 	0.000881
-98.500000	0.005226	-3.283333	3.288559	-0.024909 	0.000881
-98.475000	0.005202	-3.282500	3.287702	-0.024923 	0.000881
-98.450000	0.005177	-3.281667	3.286844	-0.024937 	0.000881
-98.425000	0.005153	-3.280833	3.285986	-0.024950 	0.000881
-98.400000	0.005128	-3.280000	3.285128	-0.024964 	0.000881
-98.375000	0.005103	-3.279167	3.284270	-0.024978 	0.000881
-98.350000	0.005079	-3.278333	3.283412	-0.024992 	0.000881
-98.325000	0.005054	-3.277500	3.282554	-0.025005 	0.000882
-98.300000	0.005029	-3.276667	3.281696	-0.025019 	0.000882
-98.275000	0.005005	-3.275833	3.280838	-0.025032 	0.000882
-98.250000	0.004980	-3.275000	3.279980	-0.025046 	0.000882
-98.225000	0.004955	-3.274167	3.279122	-0.025059 	0.000882
-98.200000	0.004931	-3.273333	3.278264	-0.025073 	0.000882
-98.175000	0.004906	-3.272500	3.277406	-0.025086 	0.000882
-98.150000	0.004881	-3.271667	3.276548	-0.025100 	0.000882
-98.125000	0.004857	-3.270833	3.275690	-0.025113 	0.000882
-98.100000	0.004832	-3.270000	3.274832	-0.025127 	0.000883
-98.075000	0.004807	-3.269167	3.273974	-0.025140 	0.000883
-98.050000	0.004782	-3.268333	3.273115	-0.025153 	0.000883
-98.025000	0.004757	-3.267500	3.272257	-0.025167 	0.000883
-98.000000	0.004733	-3.266667	3.271400	-0.025180 	0.000883
-97.975000	0.004708	-3.265833	3.270541	-0.025193 	0.000883
-97.950000	0.004683	-3.265000	3.269683	-0.025206 	0.000883
-97.925000	0.004658	-3.264167	3.268825	-0.025220 	0.000883
-97.900000	0.004633	-3.263333	3.267966	-0.025233 	0.000884
-97.875000	0.004608	-3.262500	3.267108	-0.025246 	0.000884
-97.850000	0.004583	-3.261667	3.266250	-0.025259 	0.000884
-97.825000	0.004559	-3.260833	3.265392	-0.025272 	0.000884
-97.800000	0.004534	-3.260000	3.264534	-0.025285 	0.000884
-97.775000	0.004509	-3.259167	3.263676	-0.025298 	0.000884
-97.750000	0.004484	-3.258333	3.262817	-0.025311 	0.000884
-97.725000	0.004459	-3.257500	3.261959	-0.025324 	0.000884
-97.700000	0.004434	-3.256667	3.261101	-0.025337 	0.000884
-97.675000	0.004409	-3.255833	3.260242	-0.025350 	0.000885
-97.650000	0.004384	-3.255000	3.259384	-0.025363 	0.000885
-97.625000	0.004359	-3.254167	3.258526	-0.025376 	0.000885
-97.600000	0.004334	-3.253333	3.257667	-0.025389 	0.000885
-97.575000	0.004309	-3.252500	3.256809	-0.025402 	0.000885
-97.550000	0.004284	-3.251667	3.255951	-0.025414 	0.000885
-97.525000	0.004259	-3.250833	3.255092	-0.025427 	0.000885
-97.500000	0.004234	-3.250000	3.254234	-0.025440 	0.000885
-97.475000	0.004209	-3.249167	3.253376	-0.025452 	0.000886
-97.450000	0.004183	-3.248333	3.252516	-0.025465 	0.000886
-97.425000	0.004158	-3.247500	3.251658	-0.025478 	0.000886
-97.400000	0.004133	-3.246667	3.250800	-0.025490 	0.000886
-97.375000	0.004108	-3.245833	3.249941	-0.025503 	0.000886
-97.350000	0.004083	-3.245000	3.249083	-0.025515 	0.000886
-97.325000	0.004058	-3.244167	3.248225	-0.025528 	0.000886
-97.300000	0.004033	-3.243333	3.247366	-0.025540 	0.000886
-97.275000	0.004008	-3.242500	3.246508	-0.025553 	0.000886
-97.250000	0.003982	-3.241667	3.245649	-0.025565 	0.000887
-97.225000	0.003957	-3.240833	3.244790	-0.025578 	0.000887
-97.200000	0.003932	-3.240000	3.243932	-0.025590 	0.000887
-97.175000	0.003907	-3.239167	3.243074	-0.025602 	0.000887
-97.150000	0.003882	-3.238333	3.242215	-0.025615 	0.000887
-97.125000	0.003856	-3.237500	3.241356	-0.025627 	0.000887
-97.100000	0.003831	-3.236667	3.240498	-0.025639 	0.000887
-97.075000	0.003806	-3.235833	3.239639	-0.025652 	0.000887
-97.050000	0.003781	-3.235000	3.238781	-0.025664 	0.000887
-97.025000	0.003755	-3.234167	3.237922	-0.025676 	0.000888
-97.000000	0.003730	-3.233333	3.237063	-0.025688 	0.000888
-96.975000	0.003705	-3.232500	3.236205	-0.025700 	0.000888
-96.950000	0.003679	-3.231667	3.235346	-0.025712 	0.000888
-96.925000	0.003654	-3.230833	3.234487	-0.025724 	0.000888
-96.900000	0.003629	-3.230000	3.233629	-0.025736 	0.000888
-96.875000	0.003603	-3.229167	3.232770	-0.025748 	0.000888
-96.850000	0.003578	-3.228333	3.231911	-0.025760 	0.000888
-96.825000	0.003553	-3.227500	3.231053	-0.025772 	0.000889
-96.800000	0.003527	-3.226667	3.230194	-0.025784 	0.000889
-96.775000	0.003502	-3.225833	3.229335	-0.025796 	0.000889
-96.750000	0.003476	-3.225000	3.228476	-0.025808 	0.000889
-96.725000	0.003451	-3.224167	3.227618	-0.025819 	0.000889
-96.700000	0.003426	-3.223333	3.226759	-0.025831 	0.000889
-96.675000	0.003400	-3.222500	3.225900	-0.025843 	0.000889
-96.650000	0.003375	-3.221667	3.225042	-0.025855 	0.000889
-96.625000	0.003349	-3.220833	3.224182	-0.025866 	0.000890
-96.600000	0.003324	-3.220000	3.223324	-0.025878 	0.000890
-96.575000	0.003298	-3.219167	3.222465	-0.025890 	0.000890
-96.550000	0.003273	-3.218333	3.221606	-0.025901 	0.000890
-96.525000	0.003247	-3.217500	3.220747	-0.025913 	0.000890
-96.500000	0.003222	-3.216667	3.219889	-0.025924 	0.000890
-96.475000	0.003196	-3.215833	3.219029	-0.025936 	0.000890
-96.450000	0.003171	-3.215000	3.218171	-0.025947 	0.000890
-96.425000	0.003145	-3.214167	3.217312	-0.025959 	0.000890
-96.400000	0.003120	-3.213333	3.216453	-0.025970 	0.000891
-96.375000	0.003094	-3.212500	3.215594	-0.025981 	0.000891
-96.350000	0.003068	-3.211667	3.214735	-0.025993 	0.000891
-96.325000	0.003043	-3.210833	3.213876	-0.026004 	0.000891
-96.300000	0.003017	-3.210000	3.213017	-0.026015 	0.000891
-96.275000	0.002992	-3.209167	3.212159	-0.026027 	0.000891
-96.250000	0.002966	-3.208333	3.211299	-0.026038 	0.000891
-96.225000	0.002940	-3.207500	3.210440	-0.026049 	0.000891
-96.200000	0.002915	-3.206667	3.209582	-0.026060 	0.000892
-96.175000	0.002889	-3.205833	3.208722	-0.026071 	0.000892
-96.150000	0.002863	-3.205000	3.207863	-0.026082 	0.000892
-96.125000	0.002838	-3.204167	3.207005	-0.026094 	0.000892
-96.100000	0.002812	-3.203333	3.206145	-0.026105 	0.000892
-96.075000	0.002786	-3.202500	3.205286	-0.026116 	0.000892
-96.050000	0.002761	-3.201667	3.204428	-0.026127 	0.000892
-96.025000	0.002735	-3.200833	3.203568	-0.026137 	0.000892
-96.000000	0.002709	-3.200000	3.202709	-0.026148 	0.000892
-95.975000	0.002684	-3.199167	3.201851	-0.026159 	0.000893
-95.950000	0.002658	-3.198333	3.200991	-0.026170 	0.000893
-95.925000	0.002632	-3.197500	3.200132	-0.026181 	0.000893
-95.900000	0.002606	-3.196667	3.199273	-0.026192 	0.000893
-95.875000	0.002580	-3.195833	3.198413	-0.026202 	0.000893
-95.850000	0.002555	-3.195000	3.197555	-0.026213 	0.000893
-95.825000	0.002529	-3.194167	3.196696	-0.026224 	0.000893
-95.800000	0.002503	-3.193333	3.195836	-0.026234 	0.000893
-95.775000	0.002477	-3.192500	3.194977	-0.026245 	0.000894
-95.750000	0.002451	-3.191667	3.194118	-0.026256 	0.000894
-95.725000	0.002426	-3.190833	3.193259	-0.026266 	0.000894
-95.700000	0.002400	-3.190000	3.192400	-0.026277 	0.000894
-95.675000	0.002374	-3.189167	3.191541	-0.026287 	0.000894
-95.650000	0.002348	-3.188333	3.190681	-0.026298 	0.000894
-95.625000	0.002322	-3.187500	3.189822	-0.026308 	0.000894
-95.600000	0.002296	-3.186667	3.188963	-0.026319 	0.000894
-95.575000	0.002270	-3.185833	3.188103	-0.026329 	0.000895
-95.550000	0.002244	-3.185000	3.187244	-0.026339 	0.000895
-95.525000	0.002219	-3.184167	3.186386	-0.026350 	0.000895
-95.500000	0.002193	-3.183333	3.185526	-0.026360 	0.000895
-95.475000	0.002167	-3.182500	3.184667	-0.026370 	0.000895
-95.450000	0.002141	-3.181667	3.183808	-0.026380 	0.000895
-95.425000	0.002115	-3.180833	3.182948	-0.026390 	0.000895
-95.400000	0.002089	-3.180000	3.182089	-0.026401 	0.000895
-95.375000	0.002063	-3.179167	3.181230	-0.026411 	0.000895
-95.350000	0.002037	-3.178333	3.180370	-0.026421 	0.000896
-95.325000	0.002011	-3.177500	3.179511	-0.026431 	0.000896
-95.300000	0.001985	-3.176667	3.178652	-0.026441 	0.000896
-95.275000	0.001959	-3.175833	3.177792	-0.026451 	0.000896
-95.250000	0.001933	-3.175000	3.176933	-0.026461 	0.000896
-95.225000	0.001907	-3.174167	3.176074	-0.026471 	0.000896
-95.200000	0.001881	-3.173333	3.175214	-0.026480 	0.000896
-95.175000	0.001855	-3.172500	3.174355	-0.026490 	0.000896
-95.150000	0.001829	-3.171667	3.173496	-0.026500 	0.000897
-95.125000	0.001803	-3.170833	3.172636	-0.026510 	0.000897
-95.100000	0.001777	-3.170000	3.171777	-0.026520 	0.000897
-95.075000	0.001750	-3.169167	3.170917	-0.026529 	0.000897
-95.050000	0.001724	-3.168333	3.170057	-0.026539 	0.000897
-95.025000	0.001698	-3.167500	3.169198	-0.026549 	0.000897
-95.000000	0.001672	-3.166667	3.168339	-0.026558 	0.000897
-94.975000	0.001646	-3.165833	3.167479	-0.026568 	0.000897
-94.950000	0.001620	-3.165000	3.166620	-0.026577 	0.000898
-94.925000	0.001594	-3.164167	3.165761	-0.026587 	0.000898
-94.900000	0.001568	-3.163333	3.164901	-0.026596 	0.000898
-94.875000	0.001541	-3.162500	3.164041	-0.026606 	0.000898
-94.850000	0.001515	-3.161667	3.163182	-0.026615 	0.000898
-94.825000	0.001489	-3.160833	3.162322	-0.026625 	0.000898
-94.800000	0.001463	-3.160000	3.161463	-0.026634 	0.000898
-94.775000	0.001437	-3.159167	3.160604	-0.026643 	0.000898
-94.750000	0.001411	-3.158333	3.159744	-0.026652 	0.000899
-94.725000	0.001384	-3.157500	3.158884	-0.026662 	0.000899
-94.700000	0.001358	-3.156667	3.158025	-0.026671 	0.000899
-94.675000	0.001332	-3.155833	3.157165	-0.026680 	0.000899
-94.650000	0.001306	-3.155000	3.156306	-0.026689 	0.000899
-94.625000	0.001279	-3.154167	3.155446	-0.026698 	0.000899
-94.600000	0.001253	-3.153333	3.154586	-0.026707 	0.000899
-94.575000	0.001227	-3.152500	3.153727	-0.026716 	0.000899
-94.550000	0.001201	-3.151667	3.152868	-0.026725 	0.000900
-94.525000	0.001174	-3.150833	3.152007	-0.026734 	0.000900
-94.500000	0.001148	-3.150000	3.151148	-0.026743 	0.000900
-94.475000	0.001122	-3.149167	3.150289	-0.026752 	0.000900
-94.450000	0.001096	-3.148333	3.149429	-0.026761 	0.000900
-94.425000	0.001069	-3.147500	3.148569	-0.026770 	0.000900
-94.400000	0.001043	-3.146667	3.147710	-0.026779 	0.000900
-94.375000	0.001017	-3.145833	3.146850	-0.026787 	0.000900
-94.350000	0.000990	-3.145000	3.145990	-0.026796 	0.000900
-94.325000	0.000964	-3.144167	3.145131	-0.026805 	0.000901
-94.300000	0.000938	-3.143333	3.144271	-0.026814 	0.000901
-94.275000	0.000911	-3.142500	3.143411	-0.026822 	0.000901
-94.250000	0.000885	-3.141667	3.142552	-0.026831 	0.000901
-94.225000	0.000858	-3.140833	3.141691	-0.026839 	0.000901
-94.200000	0.000832	-3.140000	3.140832	-0.026848 	0.000901
-94.175000	0.000806	-3.139167	3.139973	-0.026856 	0.000901
-94.150000	0.000779	-3.138333	3.139112	-0.026865 	0.000901
-94.125000	0.000753	-3.137500	3.138253	-0.026873 	0.000902
-94.100000	0.000726	-3.136667	3.137393	-0.026882 	0.000902
-94.075000	0.000700	-3.135833	3.136533	-0.026890 	0.000902
-94.050000	0.000674	-3.135000	3.135674	-0.026898 	0.000902
-94.025000	0.000647	-3.134167	3.134814	-0.026907 	0.000902
-94.000000	0.000621	-3.133333	3.133954	-0.026915 	0.000902
-93.975000	0.000594	-3.132500	3.133094	-0.026923 	0.000902
-93.950000	0.000568	-3.131667	3.132235	-0.026931 	0.000902
-93.925000	0.000541	-3.130833	3.131374	-0.026939 	0.000903
-93.900000	0.000515	-3.130000	3.130515	-0.026947 	0.000903
-93.875000	0.000488	-3.129167	3.129655	-0.026955 	0.000903
-93.850000	0.000462	-3.128333	3.128795	-0.026963 	0.000903
-93.825000	0.000435	-3.127500	3.127935	-0.026971 	0.000903
-93.800000	0.000409	-3.126667	3.127076	-0.026979 	0.000903
-93.775000	0.000382	-3.125833	3.126215	-0.026987 	0.000903
-93.750000	0.000356	-3.125000	3.125356	-0.026995 	0.000903
-93.725000	0.000329	-3.124167	3.124496	-0.027003 	0.000904
-93.700000	0.000303	-3.123333	3.123636	-0.027011 	0.000904
-93.675000	0.000276	-3.122500	3.122776	-0.027019 	0.000904
-93.650000	0.000250	-3.121667	3.121917	-0.027026 	0.000904
-93.625000	0.000223	-3.120833	3.121056	-0.027034 	0.000904
-93.600000	0.000196	-3.120000	3.120196	-0.027042 	0.000904
-93.575000	0.000170	-3.119167	3.119337	-0.027049 	0.000904
-93.550000	0.000143	-3.118333	3.118476	-0.027057 	0.000904
-93.525000	0.000117	-3.117500	3.117617	-0.027065 	0.000905
-93.500000	0.000090	-3.116667	3.116757	-0.027072 	0.000905
-93.475000	0.000064	-3.115833	3.115897	-0.027080 	0.000905
-93.450000	0.000037	-3.115000	3.115037	-0.027087 	0.000905
-93.425000	0.000010	-3.114167	3.114177	-0.027095 	0.000905
-93.400000	-0.000016	-3.113333	3.113317	-0.027102 	0.000905
-93.375000	-0.000043	-3.112500	3.112457	-0.027109 	0.000905
-93.350000	-0.000070	-3.111667	3.111597	-0.027117 	0.000905
-93.325000	-0.000096	-3.110833	3.110737	-0.027124 	0.000906
-93.300000	-0.000123	-3.110000	3.109877	-0.027131 	0.000906
-93.275000	-0.000150	-3.109167	3.109017	-0.027138 	0.000906
-93.250000	-0.000176	-3.108333	3.108157	-0.027146 	0.000906
-93.225000	-0.000203	-3.107500	3.107297	-0.027153 	0.000906
-93.200000	-0.000230	-3.106667	3.106437	-0.027160 	0.000906
-93.175000	-0.000256	-3.105833	3.105577	-0.027167 	0.000906
-93.150000	-0.000283	-3.105000	3.104717	-0.027174 	0.000906
-93.125000	-0.000310	-3.104167	3.103857	-0.027181 	0.000907
-93.100000	-0.000336	-3.103333	3.102997	-0.027188 	0.000907
-93.075000	-0.000363	-3.102500	3.102137	-0.027195 	0.000907
-93.050000	-0.000390	-3.101667	3.101277	-0.027202 	0.000907
-93.025000	-0.000417	-3.100833	3.100416	-0.027208 	0.000907
-93.000000	-0.000443	-3.100000	3.099557	-0.027215 	0.000907
-92.975000	-0.000470	-3.099167	3.098697	-0.027222 	0.000907
-92.950000	-0.000497	-3.098333	3.097836	-0.027229 	0.000907
-92.925000	-0.000523	-3.097500	3.096977	-0.027235 	0.000908
-92.900000	-0.000550	-3.096667	3.096117	-0.027242 	0.000908
-92.875000	-0.000577	-3.095833	3.095256	-0.027249 	0.000908
-92.850000	-0.000604	-3.095000	3.094396	-0.027255 	0.000908
-92.825000	-0.000631	-3.094167	3.093536	-0.027262 	0.000908
-92.800000	-0.000657	-3.093333	3.092676	-0.027268 	0.000908
-92.775000	-0.000684	-3.092500	3.091816	-0.027275 	0.000908
-92.750000	-0.000711	-3.091667	3.090956	-0.027281 	0.000908
-92.725000	-0.000738	-3.090833	3.090095	-0.027288 	0.000909
-92.700000	-0.000764	-3.090000	3.089236	-0.027294 	0.000909
-92.675000	-0.000791	-3.089167	3.088376	-0.027300 	0.000909
-92.650000	-0.000818	-3.088333	3.087515	-0.027307 	0.000909
-92.625000	-0.000845	-3.087500	3.086655	-0.027313 	0.000909
-92.600000	-0.000872	-3.086667	3.085795	-0.027319 	0.000909
-92.575000	-0.000899	-3.085833	3.084934	-0.027325 	0.000909
-92.550000	-0.000925	-3.085000	3.084075	-0.027331 	0.000909
-92.525000	-0.000952	-3.084167	3.083215	-0.027337 	0.000910
-92.500000	-0.000979	-3.083333	3.082354	-0.027343 	0.000910
-92.475000	-0.001006	-3.082500	3.081494	-0.027349 	0.000910
-92.450000	-0.001033	-3.081667	3.080634	-0.027355 	0.000910
-92.425000	-0.001060	-3.080833	3.079773	-0.027361 	0.000910
-92.400000	-0.001087	-3.080000	3.078913	-0.027367 	0.000910
-92.375000	-0.001114	-3.079167	3.078053	-0.027373 	0.000910
-92.350000	-0.001140	-3.078333	3.077193	-0.027379 	0.000910
-92.325000	-0.001167	-3.077500	3.076333	-0.027385 	0.000911
-92.300000	-0.001194	-3.076667	3.075473	-0.027391 	0.000911
-92.275000	-0.001221	-3.075833	3.074612	-0.027396 	0.000911
-92.250000	-0.001248	-3.075000	3.073752	-0.027402 	0.000911
-92.225000	-0.001275	-3.074167	3.072892	-0.027408 	0.000911
-92.200000	-0.001302	-3.073333	3.072031	-0.027413 	0.000911
-92.175000	-0.001329	-3.072500	3.071171	-0.027419 	0.000911
-92.150000	-0.001356	-3.071667	3.070311	-0.027424 	0.000912
-92.125000	-0.001383	-3.070833	3.069450	-0.027430 	0.000912
-92.100000	-0.001410	-3.070000	3.068590	-0.027435 	0.000912
-92.075000	-0.001437	-3.069167	3.067730	-0.027441 	0.000912
-92.050000	-0.001463	-3.068333	3.066870	-0.027446 	0.000912
-92.025000	-0.001490	-3.067500	3.066010	-0.027451 	0.000912
-92.000000	-0.001517	-3.066667	3.065150	-0.027457 	0.000912
-91.975000	-0.001544	-3.065833	3.064289	-0.027462 	0.000912
-91.950000	-0.001571	-3.065000	3.063429	-0.027467 	0.000913
-91.925000	-0.001598	-3.064167	3.062569	-0.027472 	0.000913
-91.900000	-0.001625	-3.063333	3.061708	-0.027477 	0.000913
-91.875000	-0.001652	-3.062500	3.060848	-0.027483 	0.000913
-91.850000	-0.001679	-3.061667	3.059988	-0.027488 	0.000913
-91.825000	-0.001706	-3.060833	3.059127	-0.027493 	0.000913
-91.800000	-0.001733	-3.060000	3.058267	-0.027498 	0.000913
-91.775000	-0.001760	-3.059167	3.057407	-0.027503 	0.000913
-91.750000	-0.001787	-3.058333	3.056546	-0.027508 	0.000914
-91.725000	-0.001814	-3.057500	3.055686	-0.027512 	0.000914
-91.700000	-0.001841	-3.056667	3.054826	-0.027517 	0.000914
-91.675000	-0.001868	-3.055833	3.053965	-0.027522 	0.000914
-91.650000	-0.001895	-3.055000	3.053105	-0.027527 	0.000914
-91.625000	-0.001922	-3.054167	3.052245	-0.027531 	0.000914
-91.600000	-0.001949	-3.053333	3.051384	-0.027536 	0.000914
-91.575000	-0.001976	-3.052500	3.050524	-0.027541 	0.000914
-91.550000	-0.002004	-3.051667	3.049663	-0.027545 	0.000915
-91.525000	-0.002031	-3.050833	3.048802	-0.027550 	0.000915
-91.500000	-0.002058	-3.050000	3.047942	-0.027554 	0.000915
-91.475000	-0.002085	-3.049167	3.047082	-0.027559 	0.000915
-91.450000	-0.002112	-3.048333	3.046221	-0.027563 	0.000915
-91.425000	-0.002139	-3.047500	3.045361	-0.027568 	0.000915
-91.400000	-0.002166	-3.046667	3.044501	-0.027572 	0.000915
-91.375000	-0.002193	-3.045833	3.043640	-0.027576 	0.000916
-91.350000	-0.002220	-3.045000	3.042780	-0.027581 	0.000916
-91.325000	-0.002247	-3.044167	3.041920	-0.027585 	0.000916
-91.300000	-0.002274	-3.043333	3.041059	-0.027589 	0.000916
-91.275000	-0.002301	-3.042500	3.040199	-0.027593 	0.000916
-91.250000	-0.002328	-3.041667	3.039339	-0.027597 	0.000916
-91.225000	-0.002356	-3.040833	3.038477	-0.027602 	0.000916
-91.200000	-0.002383	-3.040000	3.037617	-0.027606 	0.000916
-91.175000	-0.002410	-3.039167	3.036757	-0.027610 	0.000917
-91.150000	-0.002437	-3.038333	3.035896	-0.027614 	0.000917
-91.125000	-0.002464	-3.037500	3.035036	-0.027618 	0.000917
-91.100000	-0.002491	-3.036667	3.034176	-0.027621 	0.000917
-91.075000	-0.002518	-3.035833	3.033315	-0.027625 	0.000917
-91.050000	-0.002545	-3.035000	3.032455	-0.027629 	0.000917
-91.025000	-0.002572	-3.034167	3.031595	-0.027633 	0.000917
-91.000000	-0.002600	-3.033333	3.030733	-0.027637 	0.000917
-90.975000	-0.002627	-3.032500	3.029873	-0.027640 	0.000918
-90.950000	-0.002654	-3.031667	3.029013	-0.027644 	0.000918
-90.925000	-0.002681	-3.030833	3.028152	-0.027647 	0.000918
-90.900000	-0.002708	-3.030000	3.027292	-0.027651 	0.000918
-90.875000	-0.002735	-3.029167	3.026432	-0.027655 	0.000918
-90.850000	-0.002762	-3.028333	3.025571	-0.027658 	0.000918
-90.825000	-0.002790	-3.027500	3.024710	-0.027661 	0.000918
-90.800000	-0.002817	-3.026667	3.023850	-0.027665 	0.000918
-90.775000	-0.002844	-3.025833	3.022989	-0.027668 	0.000919
-90.750000	-0.002871	-3.025000	3.022129	-0.027672 	0.000919
-90.725000	-0.002898	-3.024167	3.021269	-0.027675 	0.000919
-90.700000	-0.002925	-3.023333	3.020408	-0.027678 	0.000919
-90.675000	-0.002953	-3.022500	3.019547	-0.027681 	0.000919
-90.650000	-0.002980	-3.021667	3.018687	-0.027684 	0.000919
-90.625000	-0.003007	-3.020833	3.017826	-0.027688 	0.000919
-90.600000	-0.003034	-3.020000	3.016966	-0.027691 	0.000920
-90.575000	-0.003061	-3.019167	3.016106	-0.027694 	0.000920
-90.550000	-0.003089	-3.018333	3.015244	-0.027697 	0.000920
-90.525000	-0.003116	-3.017500	3.014384	-0.027700 	0.000920
-90.500000	-0.003143	-3.016667	3.013524	-0.027703 	0.000920
-90.475000	-0.003170	-3.015833	3.012663	-0.027705 	0.000920
-90.450000	-0.003197	-3.015000	3.011803	-0.027708 	0.000920
-90.425000	-0.003225	-3.014167	3.010942	-0.027711 	0.000920
-90.400000	-0.003252	-3.013333	3.010081	-0.027714 	0.000921
-90.375000	-0.003279	-3.012500	3.009221	-0.027716 	0.000921
-90.350000	-0.003306	-3.011667	3.008361	-0.027719 	0.000921
-90.325000	-0.003333	-3.010833	3.007500	-0.027722 	0.000921
-90.300000	-0.003361	-3.010000	3.006639	-0.027724 	0.000921
-90.275000	-0.003388	-3.009167	3.005779	-0.027727 	0.000921
-90.250000	-0.003415	-3.008333	3.004918	-0.027729 	0.000921
-90.225000	-0.003442	-3.007500	3.004058	-0.027732 	0.000922
-90.200000	-0.003470	-3.006667	3.003197	-0.027734 	0.000922
-90.175000	-0.003497	-3.005833	3.002336	-0.027737 	0.000922
-90.150000	-0.003524	-3.005000	3.001476	-0.027739 	0.000922
-90.125000	-0.003551	-3.004167	3.000616	-0.027741 	0.000922
-90.100000	-0.003578	-3.003333	2.999755	-0.027744 	0.000922
-90.075000	-0.003606	-3.002500	2.998894	-0.027746 	0.000922
-90.050000	-0.003633	-3.001667	2.998034	-0.027748 	0.000922
-90.025000	-0.003660	-3.000833	2.997173	-0.027750 	0.000923
-90.000000	-0.003687	-3.000000	2.996313	-0.027752 	0.000923
-89.975000	-0.003715	-2.999167	2.995452	-0.027754 	0.000923
-89.950000	-0.003742	-2.998333	2.994591	-0.027756 	0.000923
-89.925000	-0.003769	-2.997500	2.993731	-0.027758 	0.000923
-89.900000	-0.003796	-2.996667	2.992871	-0.027760 	0.000923
-89.875000	-0.003824	-2.995833	2.992009	-0.027762 	0.000923
-89.850000	-0.003851	-2.995000	2.991149	-0.027764 	0.000924
-89.825000	-0.003878	-2.994167	2.990289	-0.027766 	0.000924
-89.800000	-0.003906	-2.993333	2.989427	-0.027767 	0.000924
-89.775000	-0.003933	-2.992500	2.988567	-0.027769 	0.000924
-89.750000	-0.003960	-2.991667	2.987707	-0.027771 	0.000924
-89.725000	-0.003987	-2.990833	2.986846	-0.027772 	0.000924
-89.700000	-0.004015	-2.990000	2.985985	-0.027774 	0.000924
-89.675000	-0.004042	-2.989167	2.985125	-0.027775 	0.000924
-89.650000	-0.004069	-2.988333	2.984264	-0.027777 	0.000925
-89.625000	-0.004096	-2.987500	2.983404	-0.027778 	0.000925
-89.600000	-0.004124	-2.986667	2.982543	-0.027780 	0.000925
-89.575000	-0.004151	-2.985833	2.981682	-0.027781 	0.000925
-89.550000	-0.004178	-2.985000	2.980822	-0.027782 	0.000925
-89.525000	-0.004206	-2.984167	2.979961	-0.027784 	0.000925
-89.500000	-0.004233	-2.983333	2.979100	-0.027785 	0.000925
-89.475000	-0.004260	-2.982500	2.978240	-0.027786 	0.000926
-89.450000	-0.004287	-2.981667	2.977380	-0.027787 	0.000926
-89.425000	-0.004315	-2.980833	2.976518	-0.027788 	0.000926
-89.400000	-0.004342	-2.980000	2.975658	-0.027789 	0.000926
-89.375000	-0.004369	-2.979167	2.974798	-0.027790 	0.000926
-89.350000	-0.004397	-2.978333	2.973936	-0.027791 	0.000926
-89.325000	-0.004424	-2.977500	2.973076	-0.027792 	0.000926
-89.300000	-0.004451	-2.976667	2.972216	-0.027793 	0.000926
-89.275000	-0.004478	-2.975833	2.971355	-0.027794 	0.000927
-89.250000	-0.004506	-2.975000	2.970494	-0.027795 	0.000927
-89.225000	-0.004533	-2.974167	2.969634	-0.027796 	0.000927
-89.200000	-0.004560	-2.973333	2.968773	-0.027796 	0.000927
-89.175000	-0.004588	-2.972500	2.967912	-0.027797 	0.000927
-89.150000	-0.004615	-2.971667	2.967052	-0.027798 	0.000927
-89.125000	-0.004642	-2.970833	2.966191	-0.027798 	0.000927
-89.100000	-0.004669	-2.970000	2.965331	-0.027799 	0.000928
-89.075000	-0.004697	-2.969167	2.964470	-0.027799 	0.000928
-89.050000	-0.004724	-2.968333	2.963609	-0.027800 	0.000928
-89.025000	-0.004751	-2.967500	2.962749	-0.027800 	0.000928
-89.000000	-0.004779	-2.966667	2.961888	-0.027801 	0.000928
-88.975000	-0.004806	-2.965833	2.961027	-0.027801 	0.000928
-88.950000	-0.004833	-2.965000	2.960167	-0.027801 	0.000928
-88.925000	-0.004860	-2.964167	2.959307	-0.027801 	0.000928
-88.900000	-0.004888	-2.963333	2.958445	-0.027802 	0.000929
-88.875000	-0.004915	-2.962500	2.957585	-0.027802 	0.000929
-88.850000	-0.004942	-2.961667	2.956725	-0.027802 	0.000929
-88.825000	-0.004970	-2.960833	2.955863	-0.027802 	0.000929
-88.800000	-0.004997	-2.960000	2.955003	-0.027802 	0.000929
-88.775000	-0.005024	-2.959167	2.954143	-0.027802 	0.000929
-88.750000	-0.005052	-2.958333	2.953281	-0.027802 	0.000929
-88.725000	-0.005079	-2.957500	2.952421	-0.027802 	0.000930
-88.700000	-0.005106	-2.956667	2.951561	-0.027802 	0.000930
-88.675000	-0.005134	-2.955833	2.950699	-0.027802 	0.000930
-88.650000	-0.005161	-2.955000	2.949839	-0.027801 	0.000930
-88.625000	-0.005188	-2.954167	2.948979	-0.027801 	0.000930
-88.600000	-0.005215	-2.953333	2.948118	-0.027801 	0.000930
-88.575000	-0.005243	-2.952500	2.947257	-0.027800 	0.000930
-88.550000	-0.005270	-2.951667	2.946397	-0.027800 	0.000930
-88.525000	-0.005297	-2.950833	2.945536	-0.027800 	0.000931
-88.500000	-0.005325	-2.950000	2.944675	-0.027799 	0.000931
-88.475000	-0.005352	-2.949167	2.943815	-0.027798 	0.000931
-88.450000	-0.005379	-2.948333	2.942954	-0.027798 	0.000931
-88.425000	-0.005407	-2.947500	2.942093	-0.027797 	0.000931
-88.400000	-0.005434	-2.946667	2.941233	-0.027797 	0.000931
-88.375000	-0.005461	-2.945833	2.940372	-0.027796 	0.000931
-88.350000	-0.005488	-2.945000	2.939512	-0.027795 	0.000932
-88.325000	-0.005516	-2.944167	2.938651	-0.027794 	0.000932
-88.300000	-0.005543	-2.943333	2.937790	-0.027793 	0.000932
-88.275000	-0.005570	-2.942500	2.936930	-0.027793 	0.000932
-88.250000	-0.005598	-2.941667	2.936069	-0.027792 	0.000932
-88.225000	-0.005625	-2.940833	2.935208	-0.027791 	0.000932
-88.200000	-0.005652	-2.940000	2.934348	-0.027790 	0.000932
-88.175000	-0.005679	-2.939167	2.933488	-0.027789 	0.000933
-88.150000	-0.005707	-2.938333	2.932626	-0.027787 	0.000933
-88.125000	-0.005734	-2.937500	2.931766	-0.027786 	0.000933
-88.100000	-0.005761	-2.936667	2.930906	-0.027785 	0.000933
-88.075000	-0.005789	-2.935833	2.930044	-0.027784 	0.000933
-88.050000	-0.005816	-2.935000	2.929184	-0.027782 	0.000933
-88.025000	-0.005843	-2.934167	2.928324	-0.027781 	0.000933
-88.000000	-0.005871	-2.933333	2.927462	-0.027780 	0.000933
-87.975000	-0.005898	-2.932500	2.926602	-0.027778 	0.000934
-87.950000	-0.005925	-2.931667	2.925742	-0.027777 	0.000934
-87.925000	-0.005952	-2.930833	2.924881	-0.027775 	0.000934
-87.900000	-0.005980	-2.930000	2.924020	-0.027774 	0.000934
-87.875000	-0.006007	-2.929167	2.923160	-0.027772 	0.000934
-87.850000	-0.006034	-2.928333	2.922299	-0.027770 	0.000934
-87.825000	-0.006061	-2.927500	2.921439	-0.027769 	0.000934
-87.800000	-0.006089	-2.926667	2.920578	-0.027767 	0.000935
-87.775000	-0.006116	-2.925833	2.919717	-0.027765 	0.000935
-87.750000	-0.006143	-2.925000	2.918857	-0.027763 	0.000935
-87.725000	-0.006171	-2.924167	2.917996	-0.027761 	0.000935
-87.700000	-0.006198	-2.923333	2.917135	-0.027760 	0.000935
-87.675000	-0.006225	-2.922500	2.916275	-0.027758 	0.000935
-87.650000	-0.006252	-2.921667	2.915415	-0.027756 	0.000935
-87.625000	-0.006280	-2.920833	2.914553	-0.027753 	0.000936
-87.600000	-0.006307	-2.920000	2.913693	-0.027751 	0.000936
-87.575000	-0.006334	-2.919167	2.912833	-0.027749 	0.000936
-87.550000	-0.006361	-2.918333	2.911972	-0.027747 	0.000936
-87.525000	-0.006389	-2.917500	2.911111	-0.027745 	0.000936
-87.500000	-0.006416	-2.916667	2.910251	-0.027742 	0.000936
-87.475000	-0.006443	-2.915833	2.909390	-0.027740 	0.000936
-87.450000	-0.006470	-2.915000	2.908530	-0.027738 	0.000937