VARIABLES = X,Ksi,B,H,U,tau 
ZONE T="Time 60.000000", I=4400, DATAPACKING=POINT
-100.000000	0.008883	-3.333333	3.342216	-0.018030 	0.000874
-99.975000	0.006575	-3.332500	3.339075	-0.014133 	0.000874
-99.950000	0.007523	-3.331667	3.339190	-0.015813 	0.000874
-99.925000	0.007080	-3.330833	3.337913	-0.015109 	0.000874
-99.900000	0.007231	-3.330000	3.337231	-0.015425 	0.000874
-99.875000	0.007128	-3.329167	3.336295	-0.015304 	0.000874
-99.850000	0.007134	-3.328333	3.335467	-0.015370 	0.000875
-99.825000	0.007093	-3.327500	3.334593	-0.015356 	0.000875
-99.800000	0.007072	-3.326667	3.333739	-0.015376 	0.000875
-99.775000	0.007043	-3.325833	3.332876	-0.015382 	0.000875
-99.750000	0.007017	-3.325000	3.332017	-0.015393 	0.000875
-99.725000	0.006989	-3.324167	3.331156	-0.015403 	0.000875
-99.700000	0.006963	-3.323333	3.330296	-0.015413 	0.000875
-99.675000	0.006935	-3.322500	3.329435	-0.015422 	0.000875
-99.650000	0.006909	-3.321667	3.328576	-0.015432 	0.000875
-99.625000	0.006881	-3.320833	3.327714	-0.015442 	0.000876
-99.600000	0.006854	-3.320000	3.326854	-0.015452 	0.000876
-99.575000	0.006827	-3.319167	3.325994	-0.015462 	0.000876
-99.550000	0.006800	-3.318333	3.325133	-0.015472 	0.000876
-99.525000	0.006773	-3.317500	3.324273	-0.015481 	0.000876
-99.500000	0.006746	-3.316667	3.323413	-0.015491 	0.000876
-99.475000	0.006719	-3.315833	3.322552	-0.015501 	0.000876
-99.450000	0.006692	-3.315000	3.321692	-0.015511 	0.000876
-99.425000	0.006665	-3.314167	3.320832	-0.015520 	0.000876
-99.400000	0.006637	-3.313333	3.319970	-0.015530 	0.000877
-99.375000	0.006610	-3.312500	3.319110	-0.015540 	0.000877
-99.350000	0.006583	-3.311667	3.318250	-0.015549 	0.000877
-99.325000	0.006556	-3.310833	3.317389	-0.015559 	0.000877
-99.300000	0.006529	-3.310000	3.316529	-0.015568 	0.000877
-99.275000	0.006501	-3.309167	3.315668	-0.015578 	0.000877
-99.250000	0.006474	-3.308333	3.314807	-0.015587 	0.000877
-99.225000	0.006447	-3.307500	3.313947	-0.015597 	0.000877
-99.200000	0.006419	-3.306667	3.313086	-0.015607 	0.000877
-99.175000	0.006392	-3.305833	3.312225	-0.015616 	0.000878
-99.150000	0.006365	-3.305000	3.311365	-0.015626 	0.000878
-99.125000	0.006337	-3.304167	3.310504	-0.015635 	0.000878
-99.100000	0.006310	-3.303333	3.309643	-0.015644 	0.000878
-99.075000	0.006283	-3.302500	3.308783	-0.015654 	0.000878
-99.050000	0.006255	-3.301667	3.307922	-0.015663 	0.000878
-99.025000	0.006228	-3.300833	3.307061	-0.015673 	0.000878
-99.000000	0.006200	-3.300000	3.306200	-0.015682 	0.000878
-98.975000	0.006173	-3.299167	3.305340	-0.015691 	0.000879
-98.950000	0.006146	-3.298333	3.304479	-0.015701 	0.000879
-98.925000	0.006118	-3.297500	3.303618	-0.015710 	0.000879
-98.900000	0.006091	-3.296667	3.302758	-0.015719 	0.000879
-98.875000	0.006063	-3.295833	3.301896	-0.015728 	0.000879
-98.850000	0.006035	-3.295000	3.301035	-0.015738 	0.000879
-98.825000	0.006008	-3.294167	3.300175	-0.015747 	0.000879
-98.800000	0.005980	-3.293333	3.299313	-0.015756 	0.000879
-98.775000	0.005953	-3.292500	3.298453	-0.015766 	0.000879
-98.750000	0.005925	-3.291667	3.297592	-0.015775 	0.000880
-98.725000	0.005897	-3.290833	3.296730	-0.015784 	0.000880
-98.700000	0.005870	-3.290000	3.295870	-0.015793 	0.000880
-98.675000	0.005842	-3.289167	3.295009	-0.015802 	0.000880
-98.650000	0.005814	-3.288333	3.294147	-0.015811 	0.000880
-98.625000	0.005787	-3.287500	3.293287	-0.015821 	0.000880
-98.600000	0.005759	-3.286667	3.292426	-0.015830 	0.000880
-98.575000	0.005731	-3.285833	3.291564	-0.015839 	0.000880
-98.550000	0.005704	-3.285000	3.290704	-0.015848 	0.000880
-98.525000	0.005676	-3.284167	3.289843	-0.015857 	0.000881
-98.500000	0.005648	-3.283333	3.288981	-0.015866 	0.000881
-98.475000	0.005620	-3.282500	3.288120	-0.015875 	0.000881
-98.450000	0.005593	-3.281667	3.287260	-0.015884 	0.000881
-98.425000	0.005565	-3.280833	3.286398	-0.015893 	0.000881
-98.400000	0.005537	-3.280000	3.285537	-0.015902 	0.000881
-98.375000	0.005509	-3.279167	3.284676	-0.015911 	0.000881
-98.350000	0.005481	-3.278333	3.283814	-0.015919 	0.000881
-98.325000	0.005453	-3.277500	3.282953	-0.015928 	0.000882
-98.300000	0.005426	-3.276667	3.282093	-0.015937 	0.000882
-98.275000	0.005398	-3.275833	3.281231	-0.015946 	0.000882
-98.250000	0.005370	-3.275000	3.280370	-0.015955 	0.000882
-98.225000	0.005342	-3.274167	3.279509	-0.015964 	0.000882
-98.200000	0.005314	-3.273333	3.278647	-0.015972 	0.000882
-98.175000	0.005286	-3.272500	3.277786	-0.015981 	0.000882
-98.150000	0.005258	-3.271667	3.276925	-0.015990 	0.000882
-98.125000	0.005230	-3.270833	3.276063	-0.015999 	0.000882
-98.100000	0.005202	-3.270000	3.275202	-0.016007 	0.000883
-98.075000	0.005174	-3.269167	3.274341	-0.016016 	0.000883
-98.050000	0.005146	-3.268333	3.273479	-0.016025 	0.000883
-98.025000	0.005118	-3.267500	3.272618	-0.016033 	0.000883
-98.000000	0.005090	-3.266667	3.271757	-0.016042 	0.000883
-97.975000	0.005062	-3.265833	3.270895	-0.016051 	0.000883
-97.950000	0.005034	-3.265000	3.270034	-0.016059 	0.000883
-97.925000	0.005006	-3.264167	3.269173	-0.016068 	0.000883
-97.900000	0.004977	-3.263333	3.268310	-0.016076 	0.000883
-97.875000	0.004949	-3.262500	3.267449	-0.016085 	0.000884
-97.850000	0.004921	-3.261667	3.266588	-0.016093 	0.000884
-97.825000	0.004893	-3.260833	3.265726	-0.016102 	0.000884
-97.800000	0.004865	-3.260000	3.264865	-0.016110 	0.000884
-97.775000	0.004837	-3.259167	3.264004	-0.016119 	0.000884
-97.750000	0.004808	-3.258333	3.263141	-0.016127 	0.000884
-97.725000	0.004780	-3.257500	3.262280	-0.016136 	0.000884
-97.700000	0.004752	-3.256667	3.261419	-0.016144 	0.000884
-97.675000	0.004724	-3.255833	3.260557	-0.016153 	0.000885
-97.650000	0.004695	-3.255000	3.259695	-0.016161 	0.000885
-97.625000	0.004667	-3.254167	3.258834	-0.016169 	0.000885
-97.600000	0.004639	-3.253333	3.257972	-0.016178 	0.000885
-97.575000	0.004611	-3.252500	3.257111	-0.016186 	0.000885
-97.550000	0.004582	-3.251667	3.256249	-0.016194 	0.000885
-97.525000	0.004554	-3.250833	3.255387	-0.016202 	0.000885
-97.500000	0.004526	-3.250000	3.254526	-0.016211 	0.000885
-97.475000	0.004497	-3.249167	3.253664	-0.016219 	0.000885
-97.450000	0.004469	-3.248333	3.252802	-0.016227 	0.000886
-97.425000	0.004440	-3.247500	3.251940	-0.016235 	0.000886
-97.400000	0.004412	-3.246667	3.251079	-0.016244 	0.000886
-97.375000	0.004384	-3.245833	3.250217	-0.016252 	0.000886
-97.350000	0.004355	-3.245000	3.249355	-0.016260 	0.000886
-97.325000	0.004327	-3.244167	3.248494	-0.016268 	0.000886
-97.300000	0.004298	-3.243333	3.247631	-0.016276 	0.000886
-97.275000	0.004270	-3.242500	3.246770	-0.016284 	0.000886
-97.250000	0.004241	-3.241667	3.245908	-0.016292 	0.000887
-97.225000	0.004213	-3.240833	3.245046	-0.016300 	0.000887
-97.200000	0.004184	-3.240000	3.244184	-0.016308 	0.000887
-97.175000	0.004156	-3.239167	3.243323	-0.016316 	0.000887
-97.150000	0.004127	-3.238333	3.242460	-0.016324 	0.000887
-97.125000	0.004099	-3.237500	3.241599	-0.016332 	0.000887
-97.100000	0.004070	-3.236667	3.240737	-0.016340 	0.000887
-97.075000	0.004042	-3.235833	3.239875	-0.016348 	0.000887
-97.050000	0.004013	-3.235000	3.239013	-0.016356 	0.000887
-97.025000	0.003984	-3.234167	3.238151	-0.016364 	0.000888
-97.000000	0.003956	-3.233333	3.237289	-0.016372 	0.000888
-96.975000	0.003927	-3.232500	3.236427	-0.016380 	0.000888
-96.950000	0.003898	-3.231667	3.235565	-0.016387 	0.000888
-96.925000	0.003870	-3.230833	3.234703	-0.016395 	0.000888
-96.900000	0.003841	-3.230000	3.233841	-0.016403 	0.000888
-96.875000	0.003812	-3.229167	3.232979	-0.016411 	0.000888
-96.850000	0.003784	-3.228333	3.232117	-0.016418 	0.000888
-96.825000	0.003755	-3.227500	3.231255	-0.016426 	0.000889
-96.800000	0.003726	-3.226667	3.230393	-0.016434 	0.000889
-96.775000	0.003698	-3.225833	3.229531	-0.016442 	0.000889
-96.750000	0.003669	-3.225000	3.228669	-0.016449 	0.000889
-96.725000	0.003640	-3.224167	3.227807	-0.016457 	0.000889
-96.700000	0.003611	-3.223333	3.226944	-0.016464 	0.000889
-96.675000	0.003583	-3.222500	3.226083	-0.016472 	0.000889
-96.650000	0.003554	-3.221667	3.225221	-0.016480 	0.000889
-96.625000	0.003525	-3.220833	3.224358	-0.016487 	0.000889
-96.600000	0.003496	-3.220000	3.223496	-0.016495 	0.000890
-96.575000	0.003467	-3.219167	3.222634	-0.016502 	0.000890
-96.550000	0.003438	-3.218333	3.221771	-0.016510 	0.000890
-96.525000	0.003410	-3.217500	3.220910	-0.016517 	0.000890
-96.500000	0.003381	-3.216667	3.220048	-0.016525 	0.000890
-96.475000	0.003352	-3.215833	3.219185	-0.016532 	0.000890
-96.450000	0.003323	-3.215000	3.218323	-0.016540 	0.000890
-96.425000	0.003294	-3.214167	3.217461	-0.016547 	0.000890
-96.400000	0.003265	-3.213333	3.216598	-0.016554 	0.000891
-96.375000	0.003236	-3.212500	3.215736	-0.016562 	0.000891
-96.350000	0.003207	-3.211667	3.214874	-0.016569 	0.000891
-96.325000	0.003178	-3.210833	3.214011	-0.016576 	0.000891
-96.300000	0.003149	-3.210000	3.213149	-0.016584 	0.000891
-96.275000	0.003120	-3.209167	3.212287	-0.016591 	0.000891
-96.250000	0.003091	-3.208333	3.211424	-0.016598 	0.000891
-96.225000	0.003062	-3.207500	3.210562	-0.016605 	0.000891
-96.200000	0.003033	-3.206667	3.209700	-0.016613 	0.000892
-96.175000	0.003004	-3.205833	3.208837	-0.016620 	0.000892
-96.150000	0.002975	-3.205000	3.207975	-0.016627 	0.000892
-96.125000	0.002946	-3.204167	3.207113	-0.016634 	0.000892
-96.100000	0.002917	-3.203333	3.206250	-0.016641 	0.000892
-96.075000	0.002888	-3.202500	3.205388	-0.016648 	0.000892
-96.050000	0.002859	-3.201667	3.204526	-0.016655 	0.000892
-96.025000	0.002830	-3.200833	3.203663	-0.016663 	0.000892
-96.000000	0.002801	-3.200000	3.202801	-0.016670 	0.000892
-95.975000	0.002771	-3.199167	3.201938	-0.016677 	0.000893
-95.950000	0.002742	-3.198333	3.201075	-0.016684 	0.000893
-95.925000	0.002713	-3.197500	3.200213	-0.016691 	0.000893
-95.900000	0.002684	-3.196667	3.199351	-0.016698 	0.000893
-95.875000	0.002655	-3.195833	3.198488	-0.016705 	0.000893
-95.850000	0.002626	-3.195000	3.197626	-0.016711 	0.000893
-95.825000	0.002596	-3.194167	3.196763	-0.016718 	0.000893
-95.800000	0.002567	-3.193333	3.195900	-0.016725 	0.000893
-95.775000	0.002538	-3.192500	3.195038	-0.016732 	0.000894
-95.750000	0.002509	-3.191667	3.194176	-0.016739 	0.000894
-95.725000	0.002479	-3.190833	3.193312	-0.016746 	0.000894
-95.700000	0.002450	-3.190000	3.192450	-0.016753 	0.000894
-95.675000	0.002421	-3.189167	3.191588	-0.016759 	0.000894
-95.650000	0.002392	-3.188333	3.190725	-0.016766 	0.000894
-95.625000	0.002362	-3.187500	3.189862	-0.016773 	0.000894
-95.600000	0.002333	-3.186667	3.189000	-0.016780 	0.000894
-95.575000	0.002304	-3.185833	3.188137	-0.016786 	0.000895
-95.550000	0.002274	-3.185000	3.187274	-0.016793 	0.000895
-95.525000	0.002245	-3.184167	3.186412	-0.016800 	0.000895
-95.500000	0.002216	-3.183333	3.185549	-0.016806 	0.000895
-95.475000	0.002186	-3.182500	3.184686	-0.016813 	0.000895
-95.450000	0.002157	-3.181667	3.183824	-0.016819 	0.000895
-95.425000	0.002128	-3.180833	3.182961	-0.016826 	0.000895
-95.400000	0.002098	-3.180000	3.182098	-0.016833 	0.000895
-95.375000	0.002069	-3.179167	3.181236	-0.016839 	0.000895
-95.350000	0.002039	-3.178333	3.180372	-0.016846 	0.000896
-95.325000	0.002010	-3.177500	3.179510	-0.016852 	0.000896
-95.300000	0.001981	-3.176667	3.178648	-0.016859 	0.000896
-95.275000	0.001951	-3.175833	3.177784	-0.016865 	0.000896
-95.250000	0.001922	-3.175000	3.176922	-0.016871 	0.000896
-95.225000	0.001892	-3.174167	3.176059	-0.016878 	0.000896
-95.200000	0.001863	-3.173333	3.175196	-0.016884 	0.000896
-95.175000	0.001833	-3.172500	3.174333	-0.016891 	0.000896
-95.150000	0.001804	-3.171667	3.173471	-0.016897 	0.000897
-95.125000	0.001774	-3.170833	3.172607	-0.016903 	0.000897
-95.100000	0.001745	-3.170000	3.171745	-0.016909 	0.000897
-95.075000	0.001715	-3.169167	3.170882	-0.016916 	0.000897
-95.050000	0.001686	-3.168333	3.170019	-0.016922 	0.000897
-95.025000	0.001656	-3.167500	3.169156	-0.016928 	0.000897
-95.000000	0.001627	-3.166667	3.168294	-0.016934 	0.000897
-94.975000	0.001597	-3.165833	3.167430	-0.016941 	0.000897
-94.950000	0.001567	-3.165000	3.166567	-0.016947 	0.000898
-94.925000	0.001538	-3.164167	3.165705	-0.016953 	0.000898
-94.900000	0.001508	-3.163333	3.164841	-0.016959 	0.000898
-94.875000	0.001479	-3.162500	3.163979	-0.016965 	0.000898
-94.850000	0.001449	-3.161667	3.163116	-0.016971 	0.000898
-94.825000	0.001419	-3.160833	3.162252	-0.016977 	0.000898
-94.800000	0.001390	-3.160000	3.161390	-0.016983 	0.000898
-94.775000	0.001360	-3.159167	3.160527	-0.016989 	0.000898
-94.750000	0.001331	-3.158333	3.159664	-0.016995 	0.000899
-94.725000	0.001301	-3.157500	3.158801	-0.017001 	0.000899
-94.700000	0.001271	-3.156667	3.157938	-0.017007 	0.000899
-94.675000	0.001242	-3.155833	3.157075	-0.017013 	0.000899
-94.650000	0.001212	-3.155000	3.156212	-0.017019 	0.000899
-94.625000	0.001182	-3.154167	3.155349	-0.017025 	0.000899
-94.600000	0.001152	-3.153333	3.154485	-0.017031 	0.000899
-94.575000	0.001123	-3.152500	3.153623	-0.017037 	0.000899
-94.550000	0.001093	-3.151667	3.152760	-0.017042 	0.000900
-94.525000	0.001063	-3.150833	3.151896	-0.017048 	0.000900
-94.500000	0.001033	-3.150000	3.151033	-0.017054 	0.000900
-94.475000	0.001004	-3.149167	3.150171	-0.017060 	0.000900
-94.450000	0.000974	-3.148333	3.149307	-0.017065 	0.000900
-94.425000	0.000944	-3.147500	3.148444	-0.017071 	0.000900
-94.400000	0.000914	-3.146667	3.147581	-0.017077 	0.000900
-94.375000	0.000885	-3.145833	3.146718	-0.017082 	0.000900
-94.350000	0.000855	-3.145000	3.145855	-0.017088 	0.000901
-94.325000	0.000825	-3.144167	3.144992	-0.017094 	0.000901
-94.300000	0.000795	-3.143333	3.144128	-0.017099 	0.000901
-94.275000	0.000765	-3.142500	3.143265	-0.017105 	0.000901
-94.250000	0.000735	-3.141667	3.142402	-0.017110 	0.000901
-94.225000	0.000706	-3.140833	3.141539	-0.017116 	0.000901
-94.200000	0.000676	-3.140000	3.140676	-0.017121 	0.000901
-94.175000	0.000646	-3.139167	3.139813	-0.017127 	0.000901
-94.150000	0.000616	-3.138333	3.138949	-0.017132 	0.000901
-94.125000	0.000586	-3.137500	3.138086	-0.017138 	0.000902
-94.100000	0.000556	-3.136667	3.137223	-0.017143 	0.000902
-94.075000	0.000526	-3.135833	3.136359	-0.017149 	0.000902
-94.050000	0.000496	-3.135000	3.135496	-0.017154 	0.000902
-94.025000	0.000466	-3.134167	3.134633	-0.017159 	0.000902
-94.000000	0.000437	-3.133333	3.133770	-0.017165 	0.000902
-93.975000	0.000407	-3.132500	3.132907	-0.017170 	0.000902
-93.950000	0.000377	-3.131667	3.132044	-0.017175 	0.000902
-93.925000	0.000347	-3.130833	3.131180	-0.017180 	0.000903
-93.900000	0.000317	-3.130000	3.130317	-0.017186 	0.000903
-93.875000	0.000287	-3.129167	3.129454	-0.017191 	0.000903
-93.850000	0.000257	-3.128333	3.128590	-0.017196 	0.000903
-93.825000	0.000227	-3.127500	3.127727	-0.017201 	0.000903
-93.800000	0.000197	-3.126667	3.126864	-0.017206 	0.000903
-93.775000	0.000167	-3.125833	3.126000	-0.017211 	0.000903
-93.750000	0.000137	-3.125000	3.125137	-0.017216 	0.000903
-93.725000	0.000107	-3.124167	3.124274	-0.017222 	0.000904
-93.700000	0.000077	-3.123333	3.123410	-0.017227 	0.000904
-93.675000	0.000047	-3.122500	3.122547	-0.017232 	0.000904
-93.650000	0.000017	-3.121667	3.121684	-0.017237 	0.000904
-93.625000	-0.000013	-3.120833	3.120820	-0.017242 	0.000904
-93.600000	-0.000043	-3.120000	3.119957	-0.017247 	0.000904
-93.575000	-0.000074	-3.119167	3.119093	-0.017251 	0.000904
-93.550000	-0.000104	-3.118333	3.118229	-0.017256 	0.000904
-93.525000	-0.000134	-3.117500	3.117366	-0.017261 	0.000905
-93.500000	-0.000164	-3.116667	3.116503	-0.017266 	0.000905
-93.475000	-0.000194	-3.115833	3.115639	-0.017271 	0.000905
-93.450000	-0.000224	-3.115000	3.114776	-0.017276 	0.000905
-93.425000	-0.000254	-3.114167	3.113913	-0.017281 	0.000905
-93.400000	-0.000284	-3.113333	3.113049	-0.017285 	0.000905
-93.375000	-0.000314	-3.112500	3.112186	-0.017290 	0.000905
-93.350000	-0.000344	-3.111667	3.111323	-0.017295 	0.000905
-93.325000	-0.000375	-3.110833	3.110458	-0.017299 	0.000906
-93.300000	-0.000405	-3.110000	3.109595	-0.017304 	0.000906
-93.275000	-0.000435	-3.109167	3.108732	-0.017309 	0.000906
-93.250000	-0.000465	-3.108333	3.107868	-0.017313 	0.000906
-93.225000	-0.000495	-3.107500	3.107005	-0.017318 	0.000906
-93.200000	-0.000525	-3.106667	3.106142	-0.017323 	0.000906
-93.175000	-0.000556	-3.105833	3.105277	-0.017327 	0.000906
-93.150000	-0.000586	-3.105000	3.104414	-0.017332 	0.000906
-93.125000	-0.000616	-3.104167	3.103551	-0.017336 	0.000907
-93.100000	-0.000646	-3.103333	3.102687	-0.017341 	0.000907
-93.075000	-0.000677	-3.102500	3.101823	-0.017345 	0.000907
-93.050000	-0.000707	-3.101667	3.100960	-0.017350 	0.000907
-93.025000	-0.000737	-3.100833	3.100096	-0.017354 	0.000907
-93.000000	-0.000767	-3.100000	3.099233	-0.017359 	0.000907
-92.975000	-0.000797	-3.099167	3.098370	-0.017363 	0.000907
-92.950000	-0.000828	-3.098333	3.097505	-0.017367 	0.000908
-92.925000	-0.000858	-3.097500	3.096642	-0.017372 	0.000908
-92.900000	-0.000888	-3.096667	3.095779	-0.017376 	0.000908
-92.875000	-0.000919	-3.095833	3.094914	-0.017380 	0.000908
-92.850000	-0.000949	-3.095000	3.094051	-0.017384 	0.000908
-92.825000	-0.000979	-3.094167	3.093188	-0.017389 	0.000908
-92.800000	-0.001009	-3.093333	3.092324	-0.017393 	0.000908
-92.775000	-0.001040	-3.092500	3.091460	-0.017397 	0.000908
-92.750000	-0.001070	-3.091667	3.090597	-0.017401 	0.000909
-92.725000	-0.001100	-3.090833	3.089733	-0.017405 	0.000909
-92.700000	-0.001131	-3.090000	3.088869	-0.017410 	0.000909
-92.675000	-0.001161	-3.089167	3.088006	-0.017414 	0.000909
-92.650000	-0.001191	-3.088333	3.087142	-0.017418 	0.000909
-92.625000	-0.001222	-3.087500	3.086278	-0.017422 	0.000909
-92.600000	-0.001252	-3.086667	3.085415	-0.017426 	0.000909
-92.575000	-0.001282	-3.085833	3.084551	-0.017430 	0.000909
-92.550000	-0.001313	-3.085000	3.083687	-0.017434 	0.000910
-92.525000	-0.001343	-3.084167	3.082824	-0.017438 	0.000910
-92.500000	-0.001373	-3.083333	3.081960	-0.017442 	0.000910
-92.475000	-0.001404	-3.082500	3.081096	-0.017446 	0.000910
-92.450000	-0.001434	-3.081667	3.080233	-0.017449 	0.000910
-92.425000	-0.001464	-3.080833	3.079369	-0.017453 	0.000910
-92.400000	-0.001495	-3.080000	3.078505	-0.017457 	0.000910
-92.375000	-0.001525	-3.079167	3.077642	-0.017461 	0.000910
-92.350000	-0.001556	-3.078333	3.076777	-0.017465 	0.000911
-92.325000	-0.001586	-3.077500	3.075914	-0.017468 	0.000911
-92.300000	-0.001616	-3.076667	3.075051	-0.017472 	0.000911
-92.275000	-0.001647	-3.075833	3.074186	-0.017476 	0.000911
-92.250000	-0.001677	-3.075000	3.073323	-0.017480 	0.000911
-92.225000	-0.001708	-3.074167	3.072459	-0.017483 	0.000911
-92.200000	-0.001738	-3.073333	3.071595	-0.017487 	0.000911
-92.175000	-0.001769	-3.072500	3.070731	-0.017490 	0.000911
-92.150000	-0.001799	-3.071667	3.069868	-0.017494 	0.000912
-92.125000	-0.001829	-3.070833	3.069004	-0.017498 	0.000912
-92.100000	-0.001860	-3.070000	3.068140	-0.017501 	0.000912
-92.075000	-0.001890	-3.069167	3.067277	-0.017505 	0.000912
-92.050000	-0.001921	-3.068333	3.066412	-0.017508 	0.000912
-92.025000	-0.001951	-3.067500	3.065549	-0.017512 	0.000912
-92.000000	-0.001982	-3.066667	3.064685	-0.017515 	0.000912
-91.975000	-0.002012	-3.065833	3.063821	-0.017519 	0.000912
-91.950000	-0.002043	-3.065000	3.062957	-0.017522 	0.000913
-91.925000	-0.002073	-3.064167	3.062094	-0.017525 	0.000913
-91.900000	-0.002104	-3.063333	3.061229	-0.017529 	0.000913
-91.875000	-0.002134	-3.062500	3.060366	-0.017532 	0.000913
-91.850000	-0.002165	-3.061667	3.059502	-0.017535 	0.000913
-91.825000	-0.002195	-3.060833	3.058638	-0.017539 	0.000913
-91.800000	-0.002226	-3.060000	3.057774	-0.017542 	0.000913
-91.775000	-0.002256	-3.059167	3.056911	-0.017545 	0.000914
-91.750000	-0.002287	-3.058333	3.056046	-0.017548 	0.000914
-91.725000	-0.002317	-3.057500	3.055183	-0.017552 	0.000914
-91.700000	-0.002348	-3.056667	3.054319	-0.017555 	0.000914
-91.675000	-0.002378	-3.055833	3.053455	-0.017558 	0.000914
-91.650000	-0.002409	-3.055000	3.052591	-0.017561 	0.000914
-91.625000	-0.002439	-3.054167	3.051728	-0.017564 	0.000914
-91.600000	-0.002470	-3.053333	3.050863	-0.017567 	0.000914
-91.575000	-0.002500	-3.052500	3.050000	-0.017570 	0.000915
-91.550000	-0.002531	-3.051667	3.049136	-0.017573 	0.000915
-91.525000	-0.002562	-3.050833	3.048271	-0.017576 	0.000915
-91.500000	-0.002592	-3.050000	3.047408	-0.017579 	0.000915
-91.475000	-0.002623	-3.049167	3.046544	-0.017582 	0.000915
-91.450000	-0.002653	-3.048333	3.045680	-0.017585 	0.000915
-91.425000	-0.002684	-3.047500	3.044816	-0.017588 	0.000915
-91.400000	-0.002714	-3.046667	3.043953	-0.017591 	0.000915
-91.375000	-0.002745	-3.045833	3.043088	-0.017594 	0.000916
-91.350000	-0.002776	-3.045000	3.042224	-0.017596 	0.000916
-91.325000	-0.002806	-3.044167	3.041361	-0.017599 	0.000916
-91.300000	-0.002837	-3.043333	3.040496	-0.017602 	0.000916
-91.275000	-0.002867	-3.042500	3.039633	-0.017605 	0.000916
-91.250000	-0.002898	-3.041667	3.038769	-0.017607 	0.000916
-91.225000	-0.002928	-3.040833	3.037905	-0.017610 	0.000916
-91.200000	-0.002959	-3.040000	3.037041	-0.017613 	0.000916
-91.175000	-0.002990	-3.039167	3.036177	-0.017615 	0.000917
-91.150000	-0.003020	-3.038333	3.035313	-0.017618 	0.000917
-91.125000	-0.003051	-3.037500	3.034449	-0.017621 	0.000917
-91.100000	-0.003082	-3.036667	3.033585	-0.017623 	0.000917
-91.075000	-0.003112	-3.035833	3.032721	-0.017626 	0.000917
-91.050000	-0.003143	-3.035000	3.031857	-0.017628 	0.000917
-91.025000	-0.003173	-3.034167	3.030994	-0.017631 	0.000917
-91.000000	-0.003204	-3.033333	3.030129	-0.017633 	0.000918
-90.975000	-0.003235	-3.032500	3.029265	-0.017636 	0.000918
-90.950000	-0.003265	-3.031667	3.028402	-0.017638 	0.000918
-90.925000	-0.003296	-3.030833	3.027537	-0.017641 	0.000918
-90.900000	-0.003327	-3.030000	3.026673	-0.017643 	0.000918
-90.875000	-0.003357	-3.029167	3.025810	-0.017645 	0.000918
-90.850000	-0.003388	-3.028333	3.024945	-0.017648 	0.000918
-90.825000	-0.003418	-3.027500	3.024082	-0.017650 	0.000918
-90.800000	-0.003449	-3.026667	3.023218	-0.017652 	0.000919
-90.775000	-0.003480	-3.025833	3.022353	-0.017654 	0.000919
-90.750000	-0.003510	-3.025000	3.021490	-0.017657 	0.000919
-90.725000	-0.003541	-3.024167	3.020626	-0.017659 	0.000919
-90.700000	-0.003572	-3.023333	3.019761	-0.017661 	0.000919
-90.675000	-0.003602	-3.022500	3.018898	-0.017663 	0.000919
-90.650000	-0.003633	-3.021667	3.018034	-0.017665 	0.000919
-90.625000	-0.003664	-3.020833	3.017169	-0.017667 	0.000920
-90.600000	-0.003694	-3.020000	3.016306	-0.017670 	0.000920
-90.575000	-0.003725	-3.019167	3.015442	-0.017672 	0.000920
-90.550000	-0.003756	-3.018333	3.014577	-0.017674 	0.000920
-90.525000	-0.003786	-3.017500	3.013714	-0.017676 	0.000920
-90.500000	-0.003817	-3.016667	3.012850	-0.017678 	0.000920
-90.475000	-0.003848	-3.015833	3.011985	-0.017680 	0.000920
-90.450000	-0.003878	-3.015000	3.011122	-0.017681 	0.000920
-90.425000	-0.003909	-3.014167	3.010258	-0.017683 	0.000921
-90.400000	-0.003940	-3.013333	3.009393	-0.017685 	0.000921
-90.375000	-0.003970	-3.012500	3.008530	-0.017687 	0.000921
-90.350000	-0.004001	-3.011667	3.007666	-0.017689 	0.000921
-90.325000	-0.004032	-3.010833	3.006801	-0.017691 	0.000921
-90.300000	-0.004062	-3.010000	3.005938	-0.017693 	0.000921
-90.275000	-0.004093	-3.009167	3.005074	-0.017694 	0.000921
-90.250000	-0.004124	-3.008333	3.004209	-0.017696 	0.000921
-90.225000	-0.004154	-3.007500	3.003346	-0.017698 	0.000922
-90.200000	-0.004185	-3.006667	3.002482	-0.017699 	0.000922
-90.175000	-0.004216	-3.005833	3.001617	-0.017701 	0.000922
-90.150000	-0.004247	-3.005000	3.000753	-0.017703 	0.000922
-90.125000	-0.004277	-3.004167	2.999890	-0.017704 	0.000922
-90.100000	-0.004308	-3.003333	2.999025	-0.017706 	0.000922
-90.075000	-0.004339	-3.002500	2.998161	-0.017707 	0.000922
-90.050000	-0.004369	-3.001667	2.997298	-0.017709 	0.000923
-90.025000	-0.004400	-3.000833	2.996433	-0.017710 	0.000923
-90.000000	-0.004431	-3.000000	2.995569	-0.017712 	0.000923
-89.975000	-0.004461	-2.999167	2.994706	-0.017713 	0.000923
-89.950000	-0.004492	-2.998333	2.993841	-0.017715 	0.000923
-89.925000	-0.004523	-2.997500	2.992977	-0.017716 	0.000923
-89.900000	-0.004554	-2.996667	2.992113	-0.017718 	0.000923
-89.875000	-0.004584	-2.995833	2.991249	-0.017719 	0.000923
-89.850000	-0.004615	-2.995000	2.990385	-0.017720 	0.000924
-89.825000	-0.004646	-2.994167	2.989521	-0.017722 	0.000924
-89.800000	-0.004676	-2.993333	2.988657	-0.017723 	0.000924
-89.775000	-0.004707	-2.992500	2.987793	-0.017724 	0.000924
-89.750000	-0.004738	-2.991667	2.986929	-0.017725 	0.000924
-89.725000	-0.004768	-2.990833	2.986065	-0.017727 	0.000924
-89.700000	-0.004799	-2.990000	2.985201	-0.017728 	0.000924
-89.675000	-0.004830	-2.989167	2.984337	-0.017729 	0.000925
-89.650000	-0.004861	-2.988333	2.983472	-0.017730 	0.000925
-89.625000	-0.004891	-2.987500	2.982609	-0.017731 	0.000925
-89.600000	-0.004922	-2.986667	2.981745	-0.017732 	0.000925
-89.575000	-0.004953	-2.985833	2.980880	-0.017733 	0.000925
-89.550000	-0.004983	-2.985000	2.980017	-0.017734 	0.000925
-89.525000	-0.005014	-2.984167	2.979153	-0.017735 	0.000925
-89.500000	-0.005045	-2.983333	2.978288	-0.017736 	0.000925
-89.475000	-0.005075	-2.982500	2.977425	-0.017737 	0.000926
-89.450000	-0.005106	-2.981667	2.976561	-0.017738 	0.000926
-89.425000	-0.005137	-2.980833	2.975696	-0.017739 	0.000926
-89.400000	-0.005168	-2.980000	2.974832	-0.017740 	0.000926
-89.375000	-0.005198	-2.979167	2.973969	-0.017741 	0.000926
-89.350000	-0.005229	-2.978333	2.973104	-0.017742 	0.000926
-89.325000	-0.005260	-2.977500	2.972240	-0.017743 	0.000926
-89.300000	-0.005290	-2.976667	2.971377	-0.017743 	0.000927
-89.275000	-0.005321	-2.975833	2.970512	-0.017744 	0.000927
-89.250000	-0.005352	-2.975000	2.969648	-0.017745 	0.000927
-89.225000	-0.005382	-2.974167	2.968785	-0.017746 	0.000927
-89.200000	-0.005413	-2.973333	2.967920	-0.017746 	0.000927
-89.175000	-0.005444	-2.972500	2.967056	-0.017747 	0.000927
-89.150000	-0.005474	-2.971667	2.966193	-0.017748 	0.000927
-89.125000	-0.005505	-2.970833	2.965328	-0.017748 	0.000928
-89.100000	-0.005536	-2.970000	2.964464	-0.017749 	0.000928
-89.075000	-0.005567	-2.969167	2.963600	-0.017749 	0.000928
-89.050000	-0.005597	-2.968333	2.962736	-0.017750 	0.000928
-89.025000	-0.005628	-2.967500	2.961872	-0.017750 	0.000928
-89.000000	-0.005659	-2.966667	2.961008	-0.017751 	0.000928
-88.975000	-0.005689	-2.965833	2.960144	-0.017751 	0.000928
-88.950000	-0.005720	-2.965000	2.959280	-0.017752 	0.000928
-88.925000	-0.005751	-2.964167	2.958416	-0.017752 	0.000929
-88.900000	-0.005781	-2.963333	2.957552	-0.017752 	0.000929
-88.875000	-0.005812	-2.962500	2.956688	-0.017753 	0.000929
-88.850000	-0.005843	-2.961667	2.955824	-0.017753 	0.000929
-88.825000	-0.005873	-2.960833	2.954960	-0.017753 	0.000929
-88.800000	-0.005904	-2.960000	2.954096	-0.017754 	0.000929
-88.775000	-0.005935	-2.959167	2.953232	-0.017754 	0.000929
-88.750000	-0.005965	-2.958333	2.952368	-0.017754 	0.000930
-88.725000	-0.005996	-2.957500	2.951504	-0.017754 	0.000930
-88.700000	-0.006027	-2.956667	2.950640	-0.017755 	0.000930
-88.675000	-0.006057	-2.955833	2.949776	-0.017755 	0.000930
-88.650000	-0.006088	-2.955000	2.948912	-0.017755 	0.000930
-88.625000	-0.006119	-2.954167	2.948048	-0.017755 	0.000930
-88.600000	-0.006149	-2.953333	2.947184	-0.017755 	0.000930
-88.575000	-0.006180	-2.952500	2.946320	-0.017755 	0.000931
-88.550000	-0.006211	-2.951667	2.945456	-0.017755 	0.000931
-88.525000	-0.006241	-2.950833	2.944592	-0.017755 	0.000931
-88.500000	-0.006272	-2.950000	2.943728	-0.017755 	0.000931
-88.475000	-0.006302	-2.949167	2.942865	-0.017755 	0.000931
-88.450000	-0.006333	-2.948333	2.942000	-0.017755 	0.000931
-88.425000	-0.006364	-2.947500	2.941136	-0.017755 	0.000931
-88.400000	-0.006394	-2.946667	2.940273	-0.017755 	0.000931
-88.375000	-0.006425	-2.945833	2.939408	-0.017754 	0.000932
-88.350000	-0.006456	-2.945000	2.938544	-0.017754 	0.000932
-88.325000	-0.006486	-2.944167	2.937681	-0.017754 	0.000932
-88.300000	-0.006517	-2.943333	2.936816	-0.017754 	0.000932
-88.275000	-0.006548	-2.942500	2.935952	-0.017754 	0.000932
-88.250000	-0.006578	-2.941667	2.935089	-0.017753 	0.000932
-88.225000	-0.006609	-2.940833	2.934224	-0.017753 	0.000932
-88.200000	-0.006639	-2.940000	2.933361	-0.017753 	0.000933
-88.175000	-0.006670	-2.939167	2.932497	-0.017752 	0.000933
-88.150000	-0.006701	-2.938333	2.931632	-0.017752 	0.000933
-88.125000	-0.006731	-2.937500	2.930769	-0.017751 	0.000933
-88.100000	-0.006762	-2.936667	2.929905	-0.017751 	0.000933
-88.075000	-0.006792	-2.935833	2.929041	-0.017750 	0.000933
-88.050000	-0.006823	-2.935000	2.928177	-0.017750 	0.000933
-88.025000	-0.006854	-2.934167	2.927313	-0.017749 	0.000934
-88.000000	-0.006884	-2.933333	2.926449	-0.017749 	0.000934
-87.975000	-0.006915	-2.932500	2.925585	-0.017748 	0.000934
-87.950000	-0.006945	-2.931667	2.924722	-0.017748 	0.000934
-87.925000	-0.006976	-2.930833	2.923857	-0.017747 	0.000934
-87.900000	-0.007006	-2.930000	2.922994	-0.017746 	0.000934
-87.875000	-0.007037	-2.929167	2.922130	-0.017746 	0.000934
-87.850000	-0.007068	-2.928333	2.921265	-0.017745 	0.000934
-87.825000	-0.007098	-2.927500	2.920402	-0.017744 	0.000935
-87.800000	-0.007129	-2.926667	2.919538	-0.017744 	0.000935
-87.775000	-0.007159	-2.925833	2.918674	-0.017743 	0.000935
-87.750000	-0.007190	-2.925000	2.917810	-0.017742 	0.000935
-87.725000	-0.007220	-2.924167	2.916947	-0.017741 	0.000935
-87.700000	-0.007251	-2.923333	2.916082	-0.017740 	0.000935
-87.675000	-0.007281	-2.922500	2.915219	-0.017739 	0.000935
-87.650000	-0.007312	-2.921667	2.914355	-0.017738 	0.000936
-87.625000	-0.007342	-2.920833	2.913491	-0.017737 	0.000936
-87.600000	-0.007373	-2.920000	2.912627	-0.017737 	0.000936
-87.575000	-0.007403	-2.919167	2.911764	-0.017736 	0.000936
-87.550000	-0.007434	-2.918333	2.910899	-0.017735 	0.000936
-87.525000	-0.007464	-2.917500	2.910036	-0.017733 	0.000936
-87.500000	-0.007495	-2.916667	2.909172	-0.017732 	0.000936
-87.475000	-0.007525	-2.915833	2.908308	-0.017731 	0.000937