VARIABLES = X,Ksi,B,H,U,tau 
ZONE T="Time 40.000000", I=4400, DATAPACKING=POINT
-100.000000	0.006428	-3.333333	3.339761	0.030304 	0.000874
-99.975000	0.004987	-3.332500	3.337487	0.032759 	0.000874
-99.950000	0.005582	-3.331667	3.337249	0.031726 	0.000874
-99.925000	0.005298	-3.330833	3.336131	0.032199 	0.000874
-99.900000	0.005393	-3.330000	3.335393	0.032021 	0.000875
-99.875000	0.005325	-3.329167	3.334492	0.032125 	0.000875
-99.850000	0.005327	-3.328333	3.333660	0.032107 	0.000875
-99.825000	0.005299	-3.327500	3.332799	0.032141 	0.000875
-99.800000	0.005283	-3.326667	3.331950	0.032153 	0.000875
-99.775000	0.005263	-3.325833	3.331096	0.032174 	0.000875
-99.750000	0.005244	-3.325000	3.330244	0.032191 	0.000875
-99.725000	0.005225	-3.324167	3.329392	0.032210 	0.000875
-99.700000	0.005206	-3.323333	3.328539	0.032229 	0.000875
-99.675000	0.005186	-3.322500	3.327686	0.032247 	0.000876
-99.650000	0.005167	-3.321667	3.326834	0.032265 	0.000876
-99.625000	0.005148	-3.320833	3.325981	0.032284 	0.000876
-99.600000	0.005129	-3.320000	3.325129	0.032302 	0.000876
-99.575000	0.005110	-3.319167	3.324277	0.032320 	0.000876
-99.550000	0.005091	-3.318333	3.323424	0.032338 	0.000876
-99.525000	0.005071	-3.317500	3.322571	0.032357 	0.000876
-99.500000	0.005052	-3.316667	3.321719	0.032375 	0.000876
-99.475000	0.005033	-3.315833	3.320866	0.032393 	0.000876
-99.450000	0.005014	-3.315000	3.320014	0.032411 	0.000877
-99.425000	0.004994	-3.314167	3.319161	0.032429 	0.000877
-99.400000	0.004975	-3.313333	3.318308	0.032447 	0.000877
-99.375000	0.004956	-3.312500	3.317456	0.032465 	0.000877
-99.350000	0.004936	-3.311667	3.316603	0.032483 	0.000877
-99.325000	0.004917	-3.310833	3.315750	0.032501 	0.000877
-99.300000	0.004898	-3.310000	3.314898	0.032519 	0.000877
-99.275000	0.004878	-3.309167	3.314045	0.032537 	0.000877
-99.250000	0.004859	-3.308333	3.313192	0.032554 	0.000877
-99.225000	0.004840	-3.307500	3.312340	0.032572 	0.000878
-99.200000	0.004820	-3.306667	3.311487	0.032590 	0.000878
-99.175000	0.004801	-3.305833	3.310634	0.032608 	0.000878
-99.150000	0.004782	-3.305000	3.309782	0.032625 	0.000878
-99.125000	0.004762	-3.304167	3.308929	0.032643 	0.000878
-99.100000	0.004743	-3.303333	3.308076	0.032661 	0.000878
-99.075000	0.004723	-3.302500	3.307223	0.032678 	0.000878
-99.050000	0.004704	-3.301667	3.306371	0.032696 	0.000878
-99.025000	0.004684	-3.300833	3.305517	0.032713 	0.000878
-99.000000	0.004665	-3.300000	3.304665	0.032731 	0.000879
-98.975000	0.004646	-3.299167	3.303813	0.032748 	0.000879
-98.950000	0.004626	-3.298333	3.302959	0.032766 	0.000879
-98.925000	0.004607	-3.297500	3.302107	0.032783 	0.000879
-98.900000	0.004587	-3.296667	3.301254	0.032800 	0.000879
-98.875000	0.004568	-3.295833	3.300401	0.032818 	0.000879
-98.850000	0.004548	-3.295000	3.299548	0.032835 	0.000879
-98.825000	0.004529	-3.294167	3.298696	0.032852 	0.000879
-98.800000	0.004509	-3.293333	3.297842	0.032869 	0.000880
-98.775000	0.004489	-3.292500	3.296989	0.032887 	0.000880
-98.750000	0.004470	-3.291667	3.296137	0.032904 	0.000880
-98.725000	0.004450	-3.290833	3.295283	0.032921 	0.000880
-98.700000	0.004431	-3.290000	3.294431	0.032938 	0.000880
-98.675000	0.004411	-3.289167	3.293578	0.032955 	0.000880
-98.650000	0.004392	-3.288333	3.292725	0.032972 	0.000880
-98.625000	0.004372	-3.287500	3.291872	0.032989 	0.000880
-98.600000	0.004352	-3.286667	3.291019	0.033006 	0.000880
-98.575000	0.004333	-3.285833	3.290166	0.033023 	0.000881
-98.550000	0.004313	-3.285000	3.289313	0.033040 	0.000881
-98.525000	0.004293	-3.284167	3.288460	0.033056 	0.000881
-98.500000	0.004274	-3.283333	3.287607	0.033073 	0.000881
-98.475000	0.004254	-3.282500	3.286754	0.033090 	0.000881
-98.450000	0.004234	-3.281667	3.285901	0.033107 	0.000881
-98.425000	0.004215	-3.280833	3.285048	0.033123 	0.000881
-98.400000	0.004195	-3.280000	3.284195	0.033140 	0.000881
-98.375000	0.004175	-3.279167	3.283342	0.033157 	0.000881
-98.350000	0.004156	-3.278333	3.282489	0.033173 	0.000882
-98.325000	0.004136	-3.277500	3.281636	0.033190 	0.000882
-98.300000	0.004116	-3.276667	3.280783	0.033206 	0.000882
-98.275000	0.004096	-3.275833	3.279929	0.033223 	0.000882
-98.250000	0.004077	-3.275000	3.279077	0.033239 	0.000882
-98.225000	0.004057	-3.274167	3.278224	0.033256 	0.000882
-98.200000	0.004037	-3.273333	3.277370	0.033272 	0.000882
-98.175000	0.004017	-3.272500	3.276517	0.033288 	0.000882
-98.150000	0.003997	-3.271667	3.275664	0.033305 	0.000882
-98.125000	0.003978	-3.270833	3.274811	0.033321 	0.000883
-98.100000	0.003958	-3.270000	3.273958	0.033337 	0.000883
-98.075000	0.003938	-3.269167	3.273105	0.033353 	0.000883
-98.050000	0.003918	-3.268333	3.272251	0.033370 	0.000883
-98.025000	0.003898	-3.267500	3.271398	0.033386 	0.000883
-98.000000	0.003878	-3.266667	3.270545	0.033402 	0.000883
-97.975000	0.003859	-3.265833	3.269692	0.033418 	0.000883
-97.950000	0.003839	-3.265000	3.268839	0.033434 	0.000883
-97.925000	0.003819	-3.264167	3.267986	0.033450 	0.000884
-97.900000	0.003799	-3.263333	3.267132	0.033466 	0.000884
-97.875000	0.003779	-3.262500	3.266279	0.033482 	0.000884
-97.850000	0.003759	-3.261667	3.265426	0.033497 	0.000884
-97.825000	0.003739	-3.260833	3.264572	0.033513 	0.000884
-97.800000	0.003719	-3.260000	3.263719	0.033529 	0.000884
-97.775000	0.003699	-3.259167	3.262866	0.033545 	0.000884
-97.750000	0.003679	-3.258333	3.262012	0.033561 	0.000884
-97.725000	0.003659	-3.257500	3.261159	0.033576 	0.000884
-97.700000	0.003639	-3.256667	3.260306	0.033592 	0.000885
-97.675000	0.003619	-3.255833	3.259452	0.033608 	0.000885
-97.650000	0.003599	-3.255000	3.258599	0.033623 	0.000885
-97.625000	0.003579	-3.254167	3.257746	0.033639 	0.000885
-97.600000	0.003559	-3.253333	3.256892	0.033654 	0.000885
-97.575000	0.003539	-3.252500	3.256039	0.033670 	0.000885
-97.550000	0.003519	-3.251667	3.255186	0.033685 	0.000885
-97.525000	0.003499	-3.250833	3.254332	0.033701 	0.000885
-97.500000	0.003479	-3.250000	3.253479	0.033716 	0.000885
-97.475000	0.003459	-3.249167	3.252626	0.033731 	0.000886
-97.450000	0.003439	-3.248333	3.251772	0.033747 	0.000886
-97.425000	0.003419	-3.247500	3.250919	0.033762 	0.000886
-97.400000	0.003399	-3.246667	3.250066	0.033777 	0.000886
-97.375000	0.003379	-3.245833	3.249212	0.033792 	0.000886
-97.350000	0.003359	-3.245000	3.248359	0.033807 	0.000886
-97.325000	0.003339	-3.244167	3.247506	0.033822 	0.000886
-97.300000	0.003318	-3.243333	3.246651	0.033837 	0.000886
-97.275000	0.003298	-3.242500	3.245798	0.033852 	0.000887
-97.250000	0.003278	-3.241667	3.244945	0.033867 	0.000887
-97.225000	0.003258	-3.240833	3.244091	0.033882 	0.000887
-97.200000	0.003238	-3.240000	3.243238	0.033897 	0.000887
-97.175000	0.003218	-3.239167	3.242385	0.033912 	0.000887
-97.150000	0.003198	-3.238333	3.241531	0.033927 	0.000887
-97.125000	0.003177	-3.237500	3.240677	0.033942 	0.000887
-97.100000	0.003157	-3.236667	3.239824	0.033957 	0.000887
-97.075000	0.003137	-3.235833	3.238970	0.033971 	0.000887
-97.050000	0.003117	-3.235000	3.238117	0.033986 	0.000888
-97.025000	0.003096	-3.234167	3.237263	0.034001 	0.000888
-97.000000	0.003076	-3.233333	3.236409	0.034015 	0.000888
-96.975000	0.003056	-3.232500	3.235556	0.034030 	0.000888
-96.950000	0.003036	-3.231667	3.234703	0.034044 	0.000888
-96.925000	0.003015	-3.230833	3.233848	0.034059 	0.000888
-96.900000	0.002995	-3.230000	3.232995	0.034073 	0.000888
-96.875000	0.002975	-3.229167	3.232142	0.034088 	0.000888
-96.850000	0.002955	-3.228333	3.231288	0.034102 	0.000889
-96.825000	0.002934	-3.227500	3.230434	0.034116 	0.000889
-96.800000	0.002914	-3.226667	3.229581	0.034131 	0.000889
-96.775000	0.002894	-3.225833	3.228727	0.034145 	0.000889
-96.750000	0.002873	-3.225000	3.227873	0.034159 	0.000889
-96.725000	0.002853	-3.224167	3.227020	0.034173 	0.000889
-96.700000	0.002833	-3.223333	3.226166	0.034188 	0.000889
-96.675000	0.002812	-3.222500	3.225312	0.034202 	0.000889
-96.650000	0.002792	-3.221667	3.224459	0.034216 	0.000889
-96.625000	0.002772	-3.220833	3.223605	0.034230 	0.000890
-96.600000	0.002751	-3.220000	3.222751	0.034244 	0.000890
-96.575000	0.002731	-3.219167	3.221898	0.034258 	0.000890
-96.550000	0.002711	-3.218333	3.221044	0.034272 	0.000890
-96.525000	0.002690	-3.217500	3.220190	0.034286 	0.000890
-96.500000	0.002670	-3.216667	3.219337	0.034299 	0.000890
-96.475000	0.002649	-3.215833	3.218482	0.034313 	0.000890
-96.450000	0.002629	-3.215000	3.217629	0.034327 	0.000890
-96.425000	0.002608	-3.214167	3.216775	0.034341 	0.000891
-96.400000	0.002588	-3.213333	3.215921	0.034354 	0.000891
-96.375000	0.002568	-3.212500	3.215068	0.034368 	0.000891
-96.350000	0.002547	-3.211667	3.214214	0.034382 	0.000891
-96.325000	0.002527	-3.210833	3.213360	0.034395 	0.000891
-96.300000	0.002506	-3.210000	3.212506	0.034409 	0.000891
-96.275000	0.002486	-3.209167	3.211653	0.034422 	0.000891
-96.250000	0.002465	-3.208333	3.210798	0.034436 	0.000891
-96.225000	0.002445	-3.207500	3.209945	0.034449 	0.000891
-96.200000	0.002424	-3.206667	3.209091	0.034462 	0.000892
-96.175000	0.002404	-3.205833	3.208237	0.034476 	0.000892
-96.150000	0.002383	-3.205000	3.207383	0.034489 	0.000892
-96.125000	0.002363	-3.204167	3.206530	0.034502 	0.000892
-96.100000	0.002342	-3.203333	3.205675	0.034516 	0.000892
-96.075000	0.002321	-3.202500	3.204821	0.034529 	0.000892
-96.050000	0.002301	-3.201667	3.203968	0.034542 	0.000892
-96.025000	0.002280	-3.200833	3.203113	0.034555 	0.000892
-96.000000	0.002260	-3.200000	3.202260	0.034568 	0.000893
-95.975000	0.002239	-3.199167	3.201406	0.034581 	0.000893
-95.950000	0.002219	-3.198333	3.200552	0.034594 	0.000893
-95.925000	0.002198	-3.197500	3.199698	0.034607 	0.000893
-95.900000	0.002177	-3.196667	3.198844	0.034620 	0.000893
-95.875000	0.002157	-3.195833	3.197990	0.034633 	0.000893
-95.850000	0.002136	-3.195000	3.197136	0.034645 	0.000893
-95.825000	0.002115	-3.194167	3.196282	0.034658 	0.000893
-95.800000	0.002095	-3.193333	3.195428	0.034671 	0.000893
-95.775000	0.002074	-3.192500	3.194574	0.034684 	0.000894
-95.750000	0.002054	-3.191667	3.193721	0.034696 	0.000894
-95.725000	0.002033	-3.190833	3.192866	0.034709 	0.000894
-95.700000	0.002012	-3.190000	3.192012	0.034722 	0.000894
-95.675000	0.001992	-3.189167	3.191159	0.034734 	0.000894
-95.650000	0.001971	-3.188333	3.190304	0.034747 	0.000894
-95.625000	0.001950	-3.187500	3.189450	0.034759 	0.000894
-95.600000	0.001929	-3.186667	3.188596	0.034771 	0.000894
-95.575000	0.001909	-3.185833	3.187742	0.034784 	0.000895
-95.550000	0.001888	-3.185000	3.186888	0.034796 	0.000895
-95.525000	0.001867	-3.184167	3.186034	0.034808 	0.000895
-95.500000	0.001847	-3.183333	3.185180	0.034821 	0.000895
-95.475000	0.001826	-3.182500	3.184326	0.034833 	0.000895
-95.450000	0.001805	-3.181667	3.183472	0.034845 	0.000895
-95.425000	0.001784	-3.180833	3.182617	0.034857 	0.000895
-95.400000	0.001764	-3.180000	3.181764	0.034869 	0.000895
-95.375000	0.001743	-3.179167	3.180910	0.034881 	0.000896
-95.350000	0.001722	-3.178333	3.180055	0.034893 	0.000896
-95.325000	0.001701	-3.177500	3.179201	0.034905 	0.000896
-95.300000	0.001680	-3.176667	3.178347	0.034917 	0.000896
-95.275000	0.001660	-3.175833	3.177493	0.034929 	0.000896
-95.250000	0.001639	-3.175000	3.176639	0.034941 	0.000896
-95.225000	0.001618	-3.174167	3.175785	0.034953 	0.000896
-95.200000	0.001597	-3.173333	3.174930	0.034964 	0.000896
-95.175000	0.001576	-3.172500	3.174076	0.034976 	0.000896
-95.150000	0.001555	-3.171667	3.173222	0.034988 	0.000897
-95.125000	0.001535	-3.170833	3.172368	0.034999 	0.000897
-95.100000	0.001514	-3.170000	3.171514	0.035011 	0.000897
-95.075000	0.001493	-3.169167	3.170660	0.035022 	0.000897
-95.050000	0.001472	-3.168333	3.169805	0.035034 	0.000897
-95.025000	0.001451	-3.167500	3.168951	0.035045 	0.000897
-95.000000	0.001430	-3.166667	3.168097	0.035057 	0.000897
-94.975000	0.001409	-3.165833	3.167242	0.035068 	0.000897
-94.950000	0.001388	-3.165000	3.166388	0.035079 	0.000898
-94.925000	0.001368	-3.164167	3.165535	0.035091 	0.000898
-94.900000	0.001347	-3.163333	3.164680	0.035102 	0.000898
-94.875000	0.001326	-3.162500	3.163826	0.035113 	0.000898
-94.850000	0.001305	-3.161667	3.162972	0.035124 	0.000898
-94.825000	0.001284	-3.160833	3.162117	0.035135 	0.000898
-94.800000	0.001263	-3.160000	3.161263	0.035147 	0.000898
-94.775000	0.001242	-3.159167	3.160409	0.035158 	0.000898
-94.750000	0.001221	-3.158333	3.159554	0.035169 	0.000899
-94.725000	0.001200	-3.157500	3.158700	0.035180 	0.000899
-94.700000	0.001179	-3.156667	3.157846	0.035190 	0.000899
-94.675000	0.001158	-3.155833	3.156991	0.035201 	0.000899
-94.650000	0.001137	-3.155000	3.156137	0.035212 	0.000899
-94.625000	0.001116	-3.154167	3.155283	0.035223 	0.000899
-94.600000	0.001095	-3.153333	3.154428	0.035234 	0.000899
-94.575000	0.001074	-3.152500	3.153574	0.035244 	0.000899
-94.550000	0.001053	-3.151667	3.152720	0.035255 	0.000900
-94.525000	0.001032	-3.150833	3.151865	0.035266 	0.000900
-94.500000	0.001011	-3.150000	3.151011	0.035276 	0.000900
-94.475000	0.000990	-3.149167	3.150157	0.035287 	0.000900
-94.450000	0.000969	-3.148333	3.149302	0.035297 	0.000900
-94.425000	0.000948	-3.147500	3.148448	0.035308 	0.000900
-94.400000	0.000927	-3.146667	3.147594	0.035318 	0.000900
-94.375000	0.000906	-3.145833	3.146739	0.035328 	0.000900
-94.350000	0.000885	-3.145000	3.145885	0.035339 	0.000901
-94.325000	0.000864	-3.144167	3.145031	0.035349 	0.000901
-94.300000	0.000843	-3.143333	3.144176	0.035359 	0.000901
-94.275000	0.000822	-3.142500	3.143322	0.035369 	0.000901
-94.250000	0.000800	-3.141667	3.142467	0.035379 	0.000901
-94.225000	0.000779	-3.140833	3.141612	0.035389 	0.000901
-94.200000	0.000758	-3.140000	3.140758	0.035399 	0.000901
-94.175000	0.000737	-3.139167	3.139904	0.035409 	0.000901
-94.150000	0.000716	-3.138333	3.139049	0.035419 	0.000901
-94.125000	0.000695	-3.137500	3.138195	0.035429 	0.000902
-94.100000	0.000674	-3.136667	3.137341	0.035439 	0.000902
-94.075000	0.000653	-3.135833	3.136486	0.035449 	0.000902
-94.050000	0.000631	-3.135000	3.135631	0.035459 	0.000902
-94.025000	0.000610	-3.134167	3.134777	0.035469 	0.000902
-94.000000	0.000589	-3.133333	3.133922	0.035478 	0.000902
-93.975000	0.000568	-3.132500	3.133068	0.035488 	0.000902
-93.950000	0.000547	-3.131667	3.132214	0.035497 	0.000902
-93.925000	0.000526	-3.130833	3.131359	0.035507 	0.000903
-93.900000	0.000504	-3.130000	3.130504	0.035517 	0.000903
-93.875000	0.000483	-3.129167	3.129650	0.035526 	0.000903
-93.850000	0.000462	-3.128333	3.128795	0.035535 	0.000903
-93.825000	0.000441	-3.127500	3.127941	0.035545 	0.000903
-93.800000	0.000420	-3.126667	3.127087	0.035554 	0.000903
-93.775000	0.000398	-3.125833	3.126231	0.035563 	0.000903
-93.750000	0.000377	-3.125000	3.125377	0.035573 	0.000903
-93.725000	0.000356	-3.124167	3.124523	0.035582 	0.000904
-93.700000	0.000335	-3.123333	3.123668	0.035591 	0.000904
-93.675000	0.000314	-3.122500	3.122814	0.035600 	0.000904
-93.650000	0.000292	-3.121667	3.121959	0.035609 	0.000904
-93.625000	0.000271	-3.120833	3.121104	0.035618 	0.000904
-93.600000	0.000250	-3.120000	3.120250	0.035627 	0.000904
-93.575000	0.000229	-3.119167	3.119396	0.035636 	0.000904
-93.550000	0.000207	-3.118333	3.118540	0.035645 	0.000904
-93.525000	0.000186	-3.117500	3.117686	0.035654 	0.000905
-93.500000	0.000165	-3.116667	3.116832	0.035663 	0.000905
-93.475000	0.000143	-3.115833	3.115976	0.035671 	0.000905
-93.450000	0.000122	-3.115000	3.115122	0.035680 	0.000905
-93.425000	0.000101	-3.114167	3.114268	0.035689 	0.000905
-93.400000	0.000080	-3.113333	3.113413	0.035697 	0.000905
-93.375000	0.000058	-3.112500	3.112558	0.035706 	0.000905
-93.350000	0.000037	-3.111667	3.111704	0.035715 	0.000905
-93.325000	0.000016	-3.110833	3.110849	0.035723 	0.000906
-93.300000	-0.000006	-3.110000	3.109994	0.035731 	0.000906
-93.275000	-0.000027	-3.109167	3.109140	0.035740 	0.000906
-93.250000	-0.000048	-3.108333	3.108285	0.035748 	0.000906
-93.225000	-0.000070	-3.107500	3.107430	0.035757 	0.000906
-93.200000	-0.000091	-3.106667	3.106576	0.035765 	0.000906
-93.175000	-0.000112	-3.105833	3.105721	0.035773 	0.000906
-93.150000	-0.000134	-3.105000	3.104866	0.035781 	0.000906
-93.125000	-0.000155	-3.104167	3.104012	0.035789 	0.000907
-93.100000	-0.000177	-3.103333	3.103156	0.035797 	0.000907
-93.075000	-0.000198	-3.102500	3.102302	0.035805 	0.000907
-93.050000	-0.000219	-3.101667	3.101448	0.035813 	0.000907
-93.025000	-0.000241	-3.100833	3.100592	0.035821 	0.000907
-93.000000	-0.000262	-3.100000	3.099738	0.035829 	0.000907
-92.975000	-0.000283	-3.099167	3.098884	0.035837 	0.000907
-92.950000	-0.000305	-3.098333	3.098028	0.035845 	0.000907
-92.925000	-0.000326	-3.097500	3.097174	0.035853 	0.000908
-92.900000	-0.000348	-3.096667	3.096319	0.035860 	0.000908
-92.875000	-0.000369	-3.095833	3.095464	0.035868 	0.000908
-92.850000	-0.000391	-3.095000	3.094609	0.035875 	0.000908
-92.825000	-0.000412	-3.094167	3.093755	0.035883 	0.000908
-92.800000	-0.000433	-3.093333	3.092900	0.035891 	0.000908
-92.775000	-0.000455	-3.092500	3.092045	0.035898 	0.000908
-92.750000	-0.000476	-3.091667	3.091191	0.035905 	0.000908
-92.725000	-0.000498	-3.090833	3.090335	0.035913 	0.000909
-92.700000	-0.000519	-3.090000	3.089481	0.035920 	0.000909
-92.675000	-0.000541	-3.089167	3.088626	0.035927 	0.000909
-92.650000	-0.000562	-3.088333	3.087771	0.035935 	0.000909
-92.625000	-0.000584	-3.087500	3.086916	0.035942 	0.000909
-92.600000	-0.000605	-3.086667	3.086062	0.035949 	0.000909
-92.575000	-0.000627	-3.085833	3.085206	0.035956 	0.000909
-92.550000	-0.000648	-3.085000	3.084352	0.035963 	0.000909
-92.525000	-0.000670	-3.084167	3.083497	0.035970 	0.000910
-92.500000	-0.000691	-3.083333	3.082642	0.035977 	0.000910
-92.475000	-0.000713	-3.082500	3.081787	0.035984 	0.000910
-92.450000	-0.000734	-3.081667	3.080933	0.035991 	0.000910
-92.425000	-0.000756	-3.080833	3.080077	0.035998 	0.000910
-92.400000	-0.000777	-3.080000	3.079223	0.036004 	0.000910
-92.375000	-0.000799	-3.079167	3.078368	0.036011 	0.000910
-92.350000	-0.000820	-3.078333	3.077513	0.036018 	0.000910
-92.325000	-0.000842	-3.077500	3.076658	0.036024 	0.000911
-92.300000	-0.000863	-3.076667	3.075804	0.036031 	0.000911
-92.275000	-0.000885	-3.075833	3.074948	0.036038 	0.000911
-92.250000	-0.000906	-3.075000	3.074094	0.036044 	0.000911
-92.225000	-0.000928	-3.074167	3.073239	0.036050 	0.000911
-92.200000	-0.000949	-3.073333	3.072384	0.036057 	0.000911
-92.175000	-0.000971	-3.072500	3.071529	0.036063 	0.000911
-92.150000	-0.000992	-3.071667	3.070675	0.036069 	0.000911
-92.125000	-0.001014	-3.070833	3.069819	0.036076 	0.000912
-92.100000	-0.001036	-3.070000	3.068964	0.036082 	0.000912
-92.075000	-0.001057	-3.069167	3.068110	0.036088 	0.000912
-92.050000	-0.001079	-3.068333	3.067254	0.036094 	0.000912
-92.025000	-0.001100	-3.067500	3.066400	0.036100 	0.000912
-92.000000	-0.001122	-3.066667	3.065545	0.036106 	0.000912
-91.975000	-0.001144	-3.065833	3.064689	0.036112 	0.000912
-91.950000	-0.001165	-3.065000	3.063835	0.036118 	0.000912
-91.925000	-0.001187	-3.064167	3.062980	0.036124 	0.000913
-91.900000	-0.001208	-3.063333	3.062125	0.036130 	0.000913
-91.875000	-0.001230	-3.062500	3.061270	0.036135 	0.000913
-91.850000	-0.001252	-3.061667	3.060415	0.036141 	0.000913
-91.825000	-0.001273	-3.060833	3.059560	0.036147 	0.000913
-91.800000	-0.001295	-3.060000	3.058705	0.036152 	0.000913
-91.775000	-0.001316	-3.059167	3.057851	0.036158 	0.000913
-91.750000	-0.001338	-3.058333	3.056995	0.036164 	0.000914
-91.725000	-0.001360	-3.057500	3.056140	0.036169 	0.000914
-91.700000	-0.001381	-3.056667	3.055286	0.036174 	0.000914
-91.675000	-0.001403	-3.055833	3.054430	0.036180 	0.000914
-91.650000	-0.001425	-3.055000	3.053575	0.036185 	0.000914
-91.625000	-0.001446	-3.054167	3.052721	0.036190 	0.000914
-91.600000	-0.001468	-3.053333	3.051865	0.036196 	0.000914
-91.575000	-0.001490	-3.052500	3.051010	0.036201 	0.000914
-91.550000	-0.001511	-3.051667	3.050156	0.036206 	0.000915
-91.525000	-0.001533	-3.050833	3.049300	0.036211 	0.000915
-91.500000	-0.001555	-3.050000	3.048445	0.036216 	0.000915
-91.475000	-0.001576	-3.049167	3.047591	0.036221 	0.000915
-91.450000	-0.001598	-3.048333	3.046735	0.036226 	0.000915
-91.425000	-0.001620	-3.047500	3.045880	0.036231 	0.000915
-91.400000	-0.001641	-3.046667	3.045026	0.036236 	0.000915
-91.375000	-0.001663	-3.045833	3.044170	0.036240 	0.000915
-91.350000	-0.001685	-3.045000	3.043315	0.036245 	0.000916
-91.325000	-0.001706	-3.044167	3.042461	0.036250 	0.000916
-91.300000	-0.001728	-3.043333	3.041605	0.036255 	0.000916
-91.275000	-0.001750	-3.042500	3.040750	0.036259 	0.000916
-91.250000	-0.001771	-3.041667	3.039896	0.036264 	0.000916
-91.225000	-0.001793	-3.040833	3.039040	0.036268 	0.000916
-91.200000	-0.001815	-3.040000	3.038185	0.036273 	0.000916
-91.175000	-0.001837	-3.039167	3.037330	0.036277 	0.000916
-91.150000	-0.001858	-3.038333	3.036475	0.036281 	0.000917
-91.125000	-0.001880	-3.037500	3.035620	0.036286 	0.000917
-91.100000	-0.001902	-3.036667	3.034765	0.036290 	0.000917
-91.075000	-0.001924	-3.035833	3.033909	0.036294 	0.000917
-91.050000	-0.001945	-3.035000	3.033055	0.036298 	0.000917
-91.025000	-0.001967	-3.034167	3.032200	0.036302 	0.000917
-91.000000	-0.001989	-3.033333	3.031344	0.036306 	0.000917
-90.975000	-0.002010	-3.032500	3.030490	0.036310 	0.000917
-90.950000	-0.002032	-3.031667	3.029635	0.036314 	0.000918
-90.925000	-0.002054	-3.030833	3.028779	0.036318 	0.000918
-90.900000	-0.002076	-3.030000	3.027924	0.036322 	0.000918
-90.875000	-0.002098	-3.029167	3.027069	0.036326 	0.000918
-90.850000	-0.002119	-3.028333	3.026214	0.036330 	0.000918
-90.825000	-0.002141	-3.027500	3.025359	0.036333 	0.000918
-90.800000	-0.002163	-3.026667	3.024504	0.036337 	0.000918
-90.775000	-0.002185	-3.025833	3.023648	0.036340 	0.000919
-90.750000	-0.002206	-3.025000	3.022794	0.036344 	0.000919
-90.725000	-0.002228	-3.024167	3.021939	0.036347 	0.000919
-90.700000	-0.002250	-3.023333	3.021083	0.036351 	0.000919
-90.675000	-0.002272	-3.022500	3.020228	0.036354 	0.000919
-90.650000	-0.002293	-3.021667	3.019374	0.036358 	0.000919
-90.625000	-0.002315	-3.020833	3.018518	0.036361 	0.000919
-90.600000	-0.002337	-3.020000	3.017663	0.036364 	0.000919
-90.575000	-0.002359	-3.019167	3.016808	0.036367 	0.000920
-90.550000	-0.002381	-3.018333	3.015952	0.036370 	0.000920
-90.525000	-0.002402	-3.017500	3.015098	0.036373 	0.000920
-90.500000	-0.002424	-3.016667	3.014243	0.036377 	0.000920
-90.475000	-0.002446	-3.015833	3.013387	0.036380 	0.000920
-90.450000	-0.002468	-3.015000	3.012532	0.036382 	0.000920
-90.425000	-0.002490	-3.014167	3.011677	0.036385 	0.000920
-90.400000	-0.002511	-3.013333	3.010822	0.036388 	0.000920
-90.375000	-0.002533	-3.012500	3.009967	0.036391 	0.000921
-90.350000	-0.002555	-3.011667	3.009112	0.036394 	0.000921
-90.325000	-0.002577	-3.010833	3.008256	0.036396 	0.000921
-90.300000	-0.002599	-3.010000	3.007401	0.036399 	0.000921
-90.275000	-0.002621	-3.009167	3.006546	0.036401 	0.000921
-90.250000	-0.002642	-3.008333	3.005691	0.036404 	0.000921
-90.225000	-0.002664	-3.007500	3.004836	0.036406 	0.000921
-90.200000	-0.002686	-3.006667	3.003981	0.036409 	0.000922
-90.175000	-0.002708	-3.005833	3.003125	0.036411 	0.000922
-90.150000	-0.002730	-3.005000	3.002270	0.036414 	0.000922
-90.125000	-0.002752	-3.004167	3.001415	0.036416 	0.000922
-90.100000	-0.002773	-3.003333	3.000560	0.036418 	0.000922
-90.075000	-0.002795	-3.002500	2.999705	0.036420 	0.000922
-90.050000	-0.002817	-3.001667	2.998850	0.036422 	0.000922
-90.025000	-0.002839	-3.000833	2.997994	0.036424 	0.000922
-90.000000	-0.002861	-3.000000	2.997139	0.036426 	0.000923
-89.975000	-0.002883	-2.999167	2.996284	0.036428 	0.000923
-89.950000	-0.002905	-2.998333	2.995428	0.036430 	0.000923
-89.925000	-0.002926	-2.997500	2.994574	0.036432 	0.000923
-89.900000	-0.002948	-2.996667	2.993719	0.036434 	0.000923
-89.875000	-0.002970	-2.995833	2.992863	0.036435 	0.000923
-89.850000	-0.002992	-2.995000	2.992008	0.036437 	0.000923
-89.825000	-0.003014	-2.994167	2.991153	0.036439 	0.000924
-89.800000	-0.003036	-2.993333	2.990297	0.036440 	0.000924
-89.775000	-0.003058	-2.992500	2.989442	0.036442 	0.000924
-89.750000	-0.003079	-2.991667	2.988588	0.036443 	0.000924
-89.725000	-0.003101	-2.990833	2.987732	0.036445 	0.000924
-89.700000	-0.003123	-2.990000	2.986877	0.036446 	0.000924
-89.675000	-0.003145	-2.989167	2.986022	0.036448 	0.000924
-89.650000	-0.003167	-2.988333	2.985166	0.036449 	0.000924
-89.625000	-0.003189	-2.987500	2.984311	0.036450 	0.000925
-89.600000	-0.003211	-2.986667	2.983456	0.036451 	0.000925
-89.575000	-0.003233	-2.985833	2.982600	0.036452 	0.000925
-89.550000	-0.003254	-2.985000	2.981746	0.036453 	0.000925
-89.525000	-0.003276	-2.984167	2.980891	0.036454 	0.000925
-89.500000	-0.003298	-2.983333	2.980035	0.036455 	0.000925
-89.475000	-0.003320	-2.982500	2.979180	0.036456 	0.000925
-89.450000	-0.003342	-2.981667	2.978325	0.036457 	0.000925
-89.425000	-0.003364	-2.980833	2.977469	0.036458 	0.000926
-89.400000	-0.003386	-2.980000	2.976614	0.036459 	0.000926
-89.375000	-0.003408	-2.979167	2.975759	0.036459 	0.000926
-89.350000	-0.003430	-2.978333	2.974903	0.036460 	0.000926
-89.325000	-0.003452	-2.977500	2.974048	0.036460 	0.000926
-89.300000	-0.003473	-2.976667	2.973194	0.036461 	0.000926
-89.275000	-0.003495	-2.975833	2.972338	0.036461 	0.000926
-89.250000	-0.003517	-2.975000	2.971483	0.036462 	0.000927
-89.225000	-0.003539	-2.974167	2.970628	0.036462 	0.000927
-89.200000	-0.003561	-2.973333	2.969772	0.036463 	0.000927
-89.175000	-0.003583	-2.972500	2.968917	0.036463 	0.000927
-89.150000	-0.003605	-2.971667	2.968062	0.036463 	0.000927
-89.125000	-0.003627	-2.970833	2.967206	0.036463 	0.000927
-89.100000	-0.003649	-2.970000	2.966351	0.036463 	0.000927
-89.075000	-0.003671	-2.969167	2.965496	0.036463 	0.000927
-89.050000	-0.003693	-2.968333	2.964640	0.036463 	0.000928
-89.025000	-0.003714	-2.967500	2.963786	0.036463 	0.000928
-89.000000	-0.003736	-2.966667	2.962931	0.036463 	0.000928
-88.975000	-0.003758	-2.965833	2.962075	0.036463 	0.000928
-88.950000	-0.003780	-2.965000	2.961220	0.036463 	0.000928
-88.925000	-0.003802	-2.964167	2.960365	0.036462 	0.000928
-88.900000	-0.003824	-2.963333	2.959509	0.036462 	0.000928
-88.875000	-0.003846	-2.962500	2.958654	0.036462 	0.000929
-88.850000	-0.003868	-2.961667	2.957799	0.036461 	0.000929
-88.825000	-0.003890	-2.960833	2.956943	0.036461 	0.000929
-88.800000	-0.003912	-2.960000	2.956088	0.036460 	0.000929
-88.775000	-0.003934	-2.959167	2.955233	0.036460 	0.000929
-88.750000	-0.003956	-2.958333	2.954377	0.036459 	0.000929
-88.725000	-0.003978	-2.957500	2.953522	0.036458 	0.000929
-88.700000	-0.003999	-2.956667	2.952668	0.036457 	0.000930
-88.675000	-0.004021	-2.955833	2.951812	0.036457 	0.000930
-88.650000	-0.004043	-2.955000	2.950957	0.036456 	0.000930
-88.625000	-0.004065	-2.954167	2.950102	0.036455 	0.000930
-88.600000	-0.004087	-2.953333	2.949246	0.036454 	0.000930
-88.575000	-0.004109	-2.952500	2.948391	0.036453 	0.000930
-88.550000	-0.004131	-2.951667	2.947536	0.036452 	0.000930
-88.525000	-0.004153	-2.950833	2.946680	0.036450 	0.000930
-88.500000	-0.004175	-2.950000	2.945825	0.036449 	0.000931
-88.475000	-0.004197	-2.949167	2.944970	0.036448 	0.000931
-88.450000	-0.004219	-2.948333	2.944114	0.036447 	0.000931
-88.425000	-0.004241	-2.947500	2.943259	0.036445 	0.000931
-88.400000	-0.004263	-2.946667	2.942404	0.036444 	0.000931
-88.375000	-0.004285	-2.945833	2.941548	0.036442 	0.000931
-88.350000	-0.004306	-2.945000	2.940694	0.036441 	0.000931
-88.325000	-0.004328	-2.944167	2.939839	0.036439 	0.000932
-88.300000	-0.004350	-2.943333	2.938983	0.036438 	0.000932
-88.275000	-0.004372	-2.942500	2.938128	0.036436 	0.000932
-88.250000	-0.004394	-2.941667	2.937273	0.036434 	0.000932
-88.225000	-0.004416	-2.940833	2.936417	0.036432 	0.000932
-88.200000	-0.004438	-2.940000	2.935562	0.036430 	0.000932
-88.175000	-0.004460	-2.939167	2.934707	0.036429 	0.000932
-88.150000	-0.004482	-2.938333	2.933851	0.036427 	0.000932
-88.125000	-0.004504	-2.937500	2.932996	0.036425 	0.000933
-88.100000	-0.004526	-2.936667	2.932141	0.036422 	0.000933
-88.075000	-0.004548	-2.935833	2.931285	0.036420 	0.000933
-88.050000	-0.004570	-2.935000	2.930430	0.036418 	0.000933
-88.025000	-0.004592	-2.934167	2.929575	0.036416 	0.000933
-88.000000	-0.004614	-2.933333	2.928719	0.036414 	0.000933
-87.975000	-0.004635	-2.932500	2.927865	0.036411 	0.000933
-87.950000	-0.004657	-2.931667	2.927010	0.036409 	0.000934
-87.925000	-0.004679	-2.930833	2.926154	0.036406 	0.000934
-87.900000	-0.004701	-2.930000	2.925299	0.036404 	0.000934
-87.875000	-0.004723	-2.929167	2.924444	0.036401 	0.000934
-87.850000	-0.004745	-2.928333	2.923588	0.036398 	0.000934
-87.825000	-0.004767	-2.927500	2.922733	0.036396 	0.000934
-87.800000	-0.004789	-2.926667	2.921878	0.036393 	0.000934
-87.775000	-0.004811	-2.925833	2.921022	0.036390 	0.000935
-87.750000	-0.004833	-2.925000	2.920167	0.036387 	0.000935
-87.725000	-0.004855	-2.924167	2.919312	0.036384 	0.000935
-87.700000	-0.004877	-2.923333	2.918456	0.036381 	0.000935
-87.675000	-0.004899	-2.922500	2.917601	0.036378 	0.000935
-87.650000	-0.004921	-2.921667	2.916746	0.036375 	0.000935
-87.625000	-0.004943	-2.920833	2.915890	0.036372 	0.000935
-87.600000	-0.004964	-2.920000	2.915036	0.036369 	0.000935
-87.575000	-0.004986	-2.919167	2.914181	0.036366 	0.000936
-87.550000	-0.005008	-2.918333	2.913325	0.036362 	0.000936
-87.525000	-0.005030	-2.917500	2.912470	0.036359 	0.000936
-87.500000	-0.005052	-2.916667	2.911615	0.036356 	0.000936
-87.475000	-0.005074	-2.915833	2.910759	0.036352 	0.000936
-87.450000	-0.005096	-2.915000	2.909904	0.036348 	0.000936
-87.425000	-0.005118	-2.914167	2.909049	0.036345 	0.000936
-87.400000	-0.005140	-2.913333	2.908193	0.036341 	0.000937
-87.375000	-0.005162	-2.912500	2.907338	0.036338 	0.000937
-87.350000	-0.005184	-2.911667	2.906483	0.036334 	0.000937
-87.325000	-0.005206	-2.910833	2.905627	0.036330 	0.000937
-87.300000	-0.005228	-2.910000	2.904772	0.036326 	0.000937
-87.275000	-0.005249	-2.909167	2.903918	0.036322 	0.000937
-87.250000	-0.005271	-2.908333	2.903062	0.036318 	0.000937