VARIABLES = X,Ksi,B,H,U,tau 
ZONE T="Time 15.000000", I=4400, DATAPACKING=POINT
-100.000000	0.006828	-3.333333	3.340161	0.027287 	0.000874
-99.975000	0.005821	-3.332500	3.338321	0.028993 	0.000874
-99.950000	0.006223	-3.331667	3.337890	0.028283 	0.000874
-99.925000	0.006019	-3.330833	3.336852	0.028615 	0.000874
-99.900000	0.006076	-3.330000	3.336076	0.028497 	0.000874
-99.875000	0.006020	-3.329167	3.335187	0.028573 	0.000875
-99.850000	0.006013	-3.328333	3.334346	0.028566 	0.000875
-99.825000	0.005984	-3.327500	3.333484	0.028594 	0.000875
-99.800000	0.005965	-3.326667	3.332632	0.028607 	0.000875
-99.775000	0.005942	-3.325833	3.331775	0.028627 	0.000875
-99.750000	0.005921	-3.325000	3.330921	0.028643 	0.000875
-99.725000	0.005898	-3.324167	3.330065	0.028661 	0.000875
-99.700000	0.005876	-3.323333	3.329209	0.028678 	0.000875
-99.675000	0.005854	-3.322500	3.328354	0.028696 	0.000875
-99.650000	0.005832	-3.321667	3.327499	0.028713 	0.000876
-99.625000	0.005810	-3.320833	3.326643	0.028730 	0.000876
-99.600000	0.005788	-3.320000	3.325788	0.028748 	0.000876
-99.575000	0.005766	-3.319167	3.324933	0.028765 	0.000876
-99.550000	0.005744	-3.318333	3.324077	0.028782 	0.000876
-99.525000	0.005722	-3.317500	3.323222	0.028800 	0.000876
-99.500000	0.005700	-3.316667	3.322367	0.028817 	0.000876
-99.475000	0.005678	-3.315833	3.321511	0.028834 	0.000876
-99.450000	0.005656	-3.315000	3.320656	0.028851 	0.000876
-99.425000	0.005634	-3.314167	3.319801	0.028868 	0.000877
-99.400000	0.005612	-3.313333	3.318945	0.028885 	0.000877
-99.375000	0.005590	-3.312500	3.318090	0.028902 	0.000877
-99.350000	0.005567	-3.311667	3.317234	0.028919 	0.000877
-99.325000	0.005545	-3.310833	3.316378	0.028936 	0.000877
-99.300000	0.005523	-3.310000	3.315523	0.028953 	0.000877
-99.275000	0.005501	-3.309167	3.314668	0.028970 	0.000877
-99.250000	0.005479	-3.308333	3.313812	0.028987 	0.000877
-99.225000	0.005456	-3.307500	3.312956	0.029004 	0.000878
-99.200000	0.005434	-3.306667	3.312101	0.029021 	0.000878
-99.175000	0.005412	-3.305833	3.311245	0.029038 	0.000878
-99.150000	0.005390	-3.305000	3.310390	0.029055 	0.000878
-99.125000	0.005368	-3.304167	3.309535	0.029071 	0.000878
-99.100000	0.005345	-3.303333	3.308678	0.029088 	0.000878
-99.075000	0.005323	-3.302500	3.307823	0.029105 	0.000878
-99.050000	0.005301	-3.301667	3.306968	0.029121 	0.000878
-99.025000	0.005278	-3.300833	3.306111	0.029138 	0.000878
-99.000000	0.005256	-3.300000	3.305256	0.029155 	0.000879
-98.975000	0.005234	-3.299167	3.304401	0.029171 	0.000879
-98.950000	0.005211	-3.298333	3.303544	0.029188 	0.000879
-98.925000	0.005189	-3.297500	3.302689	0.029204 	0.000879
-98.900000	0.005167	-3.296667	3.301834	0.029221 	0.000879
-98.875000	0.005144	-3.295833	3.300977	0.029237 	0.000879
-98.850000	0.005122	-3.295000	3.300122	0.029254 	0.000879
-98.825000	0.005099	-3.294167	3.299266	0.029270 	0.000879
-98.800000	0.005077	-3.293333	3.298410	0.029287 	0.000879
-98.775000	0.005055	-3.292500	3.297555	0.029303 	0.000880
-98.750000	0.005032	-3.291667	3.296699	0.029319 	0.000880
-98.725000	0.005010	-3.290833	3.295843	0.029335 	0.000880
-98.700000	0.004987	-3.290000	3.294987	0.029352 	0.000880
-98.675000	0.004965	-3.289167	3.294132	0.029368 	0.000880
-98.650000	0.004942	-3.288333	3.293275	0.029384 	0.000880
-98.625000	0.004920	-3.287500	3.292420	0.029400 	0.000880
-98.600000	0.004897	-3.286667	3.291564	0.029416 	0.000880
-98.575000	0.004875	-3.285833	3.290708	0.029433 	0.000880
-98.550000	0.004852	-3.285000	3.289852	0.029449 	0.000881
-98.525000	0.004830	-3.284167	3.288997	0.029465 	0.000881
-98.500000	0.004807	-3.283333	3.288140	0.029481 	0.000881
-98.475000	0.004785	-3.282500	3.287285	0.029497 	0.000881
-98.450000	0.004762	-3.281667	3.286429	0.029512 	0.000881
-98.425000	0.004739	-3.280833	3.285572	0.029528 	0.000881
-98.400000	0.004717	-3.280000	3.284717	0.029544 	0.000881
-98.375000	0.004694	-3.279167	3.283861	0.029560 	0.000881
-98.350000	0.004672	-3.278333	3.283005	0.029576 	0.000881
-98.325000	0.004649	-3.277500	3.282149	0.029592 	0.000882
-98.300000	0.004626	-3.276667	3.281293	0.029607 	0.000882
-98.275000	0.004604	-3.275833	3.280437	0.029623 	0.000882
-98.250000	0.004581	-3.275000	3.279581	0.029639 	0.000882
-98.225000	0.004558	-3.274167	3.278725	0.029655 	0.000882
-98.200000	0.004536	-3.273333	3.277869	0.029670 	0.000882
-98.175000	0.004513	-3.272500	3.277013	0.029686 	0.000882
-98.150000	0.004490	-3.271667	3.276157	0.029701 	0.000882
-98.125000	0.004467	-3.270833	3.275300	0.029717 	0.000883
-98.100000	0.004445	-3.270000	3.274445	0.029732 	0.000883
-98.075000	0.004422	-3.269167	3.273589	0.029748 	0.000883
-98.050000	0.004399	-3.268333	3.272732	0.029763 	0.000883
-98.025000	0.004376	-3.267500	3.271876	0.029779 	0.000883
-98.000000	0.004354	-3.266667	3.271021	0.029794 	0.000883
-97.975000	0.004331	-3.265833	3.270164	0.029809 	0.000883
-97.950000	0.004308	-3.265000	3.269308	0.029825 	0.000883
-97.925000	0.004285	-3.264167	3.268452	0.029840 	0.000883
-97.900000	0.004262	-3.263333	3.267595	0.029855 	0.000884
-97.875000	0.004239	-3.262500	3.266739	0.029871 	0.000884
-97.850000	0.004217	-3.261667	3.265884	0.029886 	0.000884
-97.825000	0.004194	-3.260833	3.265027	0.029901 	0.000884
-97.800000	0.004171	-3.260000	3.264171	0.029916 	0.000884
-97.775000	0.004148	-3.259167	3.263315	0.029931 	0.000884
-97.750000	0.004125	-3.258333	3.262458	0.029946 	0.000884
-97.725000	0.004102	-3.257500	3.261602	0.029961 	0.000884
-97.700000	0.004079	-3.256667	3.260746	0.029976 	0.000885
-97.675000	0.004056	-3.255833	3.259889	0.029991 	0.000885
-97.650000	0.004033	-3.255000	3.259033	0.030006 	0.000885
-97.625000	0.004010	-3.254167	3.258177	0.030021 	0.000885
-97.600000	0.003987	-3.253333	3.257320	0.030036 	0.000885
-97.575000	0.003965	-3.252500	3.256465	0.030051 	0.000885
-97.550000	0.003942	-3.251667	3.255609	0.030065 	0.000885
-97.525000	0.003919	-3.250833	3.254752	0.030080 	0.000885
-97.500000	0.003896	-3.250000	3.253896	0.030095 	0.000885
-97.475000	0.003873	-3.249167	3.253040	0.030110 	0.000886
-97.450000	0.003849	-3.248333	3.252182	0.030124 	0.000886
-97.425000	0.003826	-3.247500	3.251326	0.030139 	0.000886
-97.400000	0.003803	-3.246667	3.250470	0.030153 	0.000886
-97.375000	0.003780	-3.245833	3.249613	0.030168 	0.000886
-97.350000	0.003757	-3.245000	3.248757	0.030182 	0.000886
-97.325000	0.003734	-3.244167	3.247901	0.030197 	0.000886
-97.300000	0.003711	-3.243333	3.247044	0.030211 	0.000886
-97.275000	0.003688	-3.242500	3.246188	0.030226 	0.000886
-97.250000	0.003665	-3.241667	3.245332	0.030240 	0.000887
-97.225000	0.003642	-3.240833	3.244475	0.030255 	0.000887
-97.200000	0.003619	-3.240000	3.243619	0.030269 	0.000887
-97.175000	0.003596	-3.239167	3.242763	0.030283 	0.000887
-97.150000	0.003572	-3.238333	3.241905	0.030298 	0.000887
-97.125000	0.003549	-3.237500	3.241049	0.030312 	0.000887
-97.100000	0.003526	-3.236667	3.240193	0.030326 	0.000887
-97.075000	0.003503	-3.235833	3.239336	0.030340 	0.000887
-97.050000	0.003480	-3.235000	3.238480	0.030354 	0.000888
-97.025000	0.003456	-3.234167	3.237623	0.030368 	0.000888
-97.000000	0.003433	-3.233333	3.236766	0.030382 	0.000888
-96.975000	0.003410	-3.232500	3.235910	0.030396 	0.000888
-96.950000	0.003387	-3.231667	3.235054	0.030410 	0.000888
-96.925000	0.003364	-3.230833	3.234197	0.030424 	0.000888
-96.900000	0.003340	-3.230000	3.233340	0.030438 	0.000888
-96.875000	0.003317	-3.229167	3.232484	0.030452 	0.000888
-96.850000	0.003294	-3.228333	3.231627	0.030466 	0.000888
-96.825000	0.003270	-3.227500	3.230770	0.030480 	0.000889
-96.800000	0.003247	-3.226667	3.229914	0.030494 	0.000889
-96.775000	0.003224	-3.225833	3.229057	0.030507 	0.000889
-96.750000	0.003201	-3.225000	3.228201	0.030521 	0.000889
-96.725000	0.003177	-3.224167	3.227344	0.030535 	0.000889
-96.700000	0.003154	-3.223333	3.226487	0.030548 	0.000889
-96.675000	0.003131	-3.222500	3.225631	0.030562 	0.000889
-96.650000	0.003107	-3.221667	3.224774	0.030576 	0.000889
-96.625000	0.003084	-3.220833	3.223917	0.030589 	0.000890
-96.600000	0.003061	-3.220000	3.223061	0.030603 	0.000890
-96.575000	0.003037	-3.219167	3.222204	0.030616 	0.000890
-96.550000	0.003014	-3.218333	3.221347	0.030630 	0.000890
-96.525000	0.002990	-3.217500	3.220490	0.030643 	0.000890
-96.500000	0.002967	-3.216667	3.219634	0.030656 	0.000890
-96.475000	0.002943	-3.215833	3.218776	0.030670 	0.000890
-96.450000	0.002920	-3.215000	3.217920	0.030683 	0.000890
-96.425000	0.002897	-3.214167	3.217064	0.030696 	0.000890
-96.400000	0.002873	-3.213333	3.216206	0.030709 	0.000891
-96.375000	0.002850	-3.212500	3.215350	0.030723 	0.000891
-96.350000	0.002826	-3.211667	3.214493	0.030736 	0.000891
-96.325000	0.002803	-3.210833	3.213636	0.030749 	0.000891
-96.300000	0.002779	-3.210000	3.212779	0.030762 	0.000891
-96.275000	0.002756	-3.209167	3.211923	0.030775 	0.000891
-96.250000	0.002732	-3.208333	3.211065	0.030788 	0.000891
-96.225000	0.002709	-3.207500	3.210209	0.030801 	0.000891
-96.200000	0.002685	-3.206667	3.209352	0.030814 	0.000892
-96.175000	0.002662	-3.205833	3.208495	0.030827 	0.000892
-96.150000	0.002638	-3.205000	3.207638	0.030840 	0.000892
-96.125000	0.002615	-3.204167	3.206782	0.030853 	0.000892
-96.100000	0.002591	-3.203333	3.205924	0.030865 	0.000892
-96.075000	0.002567	-3.202500	3.205067	0.030878 	0.000892
-96.050000	0.002544	-3.201667	3.204211	0.030891 	0.000892
-96.025000	0.002520	-3.200833	3.203353	0.030904 	0.000892
-96.000000	0.002497	-3.200000	3.202497	0.030916 	0.000893
-95.975000	0.002473	-3.199167	3.201640	0.030929 	0.000893
-95.950000	0.002449	-3.198333	3.200782	0.030941 	0.000893
-95.925000	0.002426	-3.197500	3.199926	0.030954 	0.000893
-95.900000	0.002402	-3.196667	3.199069	0.030966 	0.000893
-95.875000	0.002379	-3.195833	3.198212	0.030979 	0.000893
-95.850000	0.002355	-3.195000	3.197355	0.030991 	0.000893
-95.825000	0.002331	-3.194167	3.196498	0.031004 	0.000893
-95.800000	0.002308	-3.193333	3.195641	0.031016 	0.000893
-95.775000	0.002284	-3.192500	3.194784	0.031028 	0.000894
-95.750000	0.002260	-3.191667	3.193927	0.031041 	0.000894
-95.725000	0.002237	-3.190833	3.193070	0.031053 	0.000894
-95.700000	0.002213	-3.190000	3.192213	0.031065 	0.000894
-95.675000	0.002189	-3.189167	3.191356	0.031077 	0.000894
-95.650000	0.002165	-3.188333	3.190498	0.031090 	0.000894
-95.625000	0.002142	-3.187500	3.189642	0.031102 	0.000894
-95.600000	0.002118	-3.186667	3.188785	0.031114 	0.000894
-95.575000	0.002094	-3.185833	3.187927	0.031126 	0.000895
-95.550000	0.002070	-3.185000	3.187070	0.031138 	0.000895
-95.525000	0.002047	-3.184167	3.186214	0.031150 	0.000895
-95.500000	0.002023	-3.183333	3.185356	0.031162 	0.000895
-95.475000	0.001999	-3.182500	3.184499	0.031174 	0.000895
-95.450000	0.001975	-3.181667	3.183642	0.031185 	0.000895
-95.425000	0.001951	-3.180833	3.182784	0.031197 	0.000895
-95.400000	0.001928	-3.180000	3.181928	0.031209 	0.000895
-95.375000	0.001904	-3.179167	3.181071	0.031221 	0.000896
-95.350000	0.001880	-3.178333	3.180213	0.031232 	0.000896
-95.325000	0.001856	-3.177500	3.179356	0.031244 	0.000896
-95.300000	0.001832	-3.176667	3.178499	0.031256 	0.000896
-95.275000	0.001808	-3.175833	3.177641	0.031267 	0.000896
-95.250000	0.001785	-3.175000	3.176785	0.031279 	0.000896
-95.225000	0.001761	-3.174167	3.175928	0.031290 	0.000896
-95.200000	0.001737	-3.173333	3.175070	0.031302 	0.000896
-95.175000	0.001713	-3.172500	3.174213	0.031313 	0.000896
-95.150000	0.001689	-3.171667	3.173356	0.031325 	0.000897
-95.125000	0.001665	-3.170833	3.172498	0.031336 	0.000897
-95.100000	0.001641	-3.170000	3.171641	0.031347 	0.000897
-95.075000	0.001617	-3.169167	3.170784	0.031359 	0.000897
-95.050000	0.001593	-3.168333	3.169926	0.031370 	0.000897
-95.025000	0.001569	-3.167500	3.169069	0.031381 	0.000897
-95.000000	0.001546	-3.166667	3.168213	0.031392 	0.000897
-94.975000	0.001522	-3.165833	3.167355	0.031404 	0.000897
-94.950000	0.001498	-3.165000	3.166498	0.031415 	0.000898
-94.925000	0.001474	-3.164167	3.165641	0.031426 	0.000898
-94.900000	0.001450	-3.163333	3.164783	0.031437 	0.000898
-94.875000	0.001426	-3.162500	3.163926	0.031448 	0.000898
-94.850000	0.001402	-3.161667	3.163069	0.031459 	0.000898
-94.825000	0.001378	-3.160833	3.162211	0.031470 	0.000898
-94.800000	0.001354	-3.160000	3.161354	0.031480 	0.000898
-94.775000	0.001330	-3.159167	3.160497	0.031491 	0.000898
-94.750000	0.001306	-3.158333	3.159639	0.031502 	0.000899
-94.725000	0.001282	-3.157500	3.158782	0.031513 	0.000899
-94.700000	0.001258	-3.156667	3.157925	0.031523 	0.000899
-94.675000	0.001234	-3.155833	3.157067	0.031534 	0.000899
-94.650000	0.001210	-3.155000	3.156210	0.031545 	0.000899
-94.625000	0.001185	-3.154167	3.155352	0.031555 	0.000899
-94.600000	0.001161	-3.153333	3.154494	0.031566 	0.000899
-94.575000	0.001137	-3.152500	3.153637	0.031576 	0.000899
-94.550000	0.001113	-3.151667	3.152780	0.031587 	0.000900
-94.525000	0.001089	-3.150833	3.151922	0.031597 	0.000900
-94.500000	0.001065	-3.150000	3.151065	0.031608 	0.000900
-94.475000	0.001041	-3.149167	3.150208	0.031618 	0.000900
-94.450000	0.001017	-3.148333	3.149350	0.031629 	0.000900
-94.425000	0.000993	-3.147500	3.148493	0.031639 	0.000900
-94.400000	0.000969	-3.146667	3.147636	0.031649 	0.000900
-94.375000	0.000944	-3.145833	3.146777	0.031659 	0.000900
-94.350000	0.000920	-3.145000	3.145920	0.031669 	0.000900
-94.325000	0.000896	-3.144167	3.145063	0.031680 	0.000901
-94.300000	0.000872	-3.143333	3.144205	0.031690 	0.000901
-94.275000	0.000848	-3.142500	3.143348	0.031700 	0.000901
-94.250000	0.000824	-3.141667	3.142491	0.031710 	0.000901
-94.225000	0.000800	-3.140833	3.141633	0.031720 	0.000901
-94.200000	0.000775	-3.140000	3.140775	0.031730 	0.000901
-94.175000	0.000751	-3.139167	3.139918	0.031740 	0.000901
-94.150000	0.000727	-3.138333	3.139060	0.031749 	0.000901
-94.125000	0.000703	-3.137500	3.138203	0.031759 	0.000902
-94.100000	0.000679	-3.136667	3.137346	0.031769 	0.000902
-94.075000	0.000654	-3.135833	3.136487	0.031779 	0.000902
-94.050000	0.000630	-3.135000	3.135630	0.031789 	0.000902
-94.025000	0.000606	-3.134167	3.134773	0.031798 	0.000902
-94.000000	0.000582	-3.133333	3.133915	0.031808 	0.000902
-93.975000	0.000557	-3.132500	3.133057	0.031817 	0.000902
-93.950000	0.000533	-3.131667	3.132200	0.031827 	0.000902
-93.925000	0.000509	-3.130833	3.131342	0.031836 	0.000903
-93.900000	0.000485	-3.130000	3.130485	0.031846 	0.000903
-93.875000	0.000460	-3.129167	3.129627	0.031855 	0.000903
-93.850000	0.000436	-3.128333	3.128769	0.031865 	0.000903
-93.825000	0.000412	-3.127500	3.127912	0.031874 	0.000903
-93.800000	0.000387	-3.126667	3.127054	0.031883 	0.000903
-93.775000	0.000363	-3.125833	3.126196	0.031892 	0.000903
-93.750000	0.000339	-3.125000	3.125339	0.031902 	0.000903
-93.725000	0.000314	-3.124167	3.124481	0.031911 	0.000904
-93.700000	0.000290	-3.123333	3.123623	0.031920 	0.000904
-93.675000	0.000266	-3.122500	3.122766	0.031929 	0.000904
-93.650000	0.000241	-3.121667	3.121908	0.031938 	0.000904
-93.625000	0.000217	-3.120833	3.121050	0.031947 	0.000904
-93.600000	0.000193	-3.120000	3.120193	0.031956 	0.000904
-93.575000	0.000168	-3.119167	3.119335	0.031965 	0.000904
-93.550000	0.000144	-3.118333	3.118477	0.031974 	0.000904
-93.525000	0.000120	-3.117500	3.117620	0.031983 	0.000905
-93.500000	0.000095	-3.116667	3.116762	0.031992 	0.000905
-93.475000	0.000071	-3.115833	3.115904	0.032000 	0.000905
-93.450000	0.000047	-3.115000	3.115047	0.032009 	0.000905
-93.425000	0.000022	-3.114167	3.114189	0.032018 	0.000905
-93.400000	-0.000002	-3.113333	3.113331	0.032026 	0.000905
-93.375000	-0.000027	-3.112500	3.112473	0.032035 	0.000905
-93.350000	-0.000051	-3.111667	3.111616	0.032043 	0.000905
-93.325000	-0.000075	-3.110833	3.110758	0.032052 	0.000906
-93.300000	-0.000100	-3.110000	3.109900	0.032060 	0.000906
-93.275000	-0.000124	-3.109167	3.109043	0.032069 	0.000906
-93.250000	-0.000149	-3.108333	3.108184	0.032077 	0.000906
-93.225000	-0.000173	-3.107500	3.107327	0.032086 	0.000906
-93.200000	-0.000198	-3.106667	3.106469	0.032094 	0.000906
-93.175000	-0.000222	-3.105833	3.105611	0.032102 	0.000906
-93.150000	-0.000247	-3.105000	3.104753	0.032110 	0.000906
-93.125000	-0.000271	-3.104167	3.103896	0.032119 	0.000907
-93.100000	-0.000295	-3.103333	3.103038	0.032127 	0.000907
-93.075000	-0.000320	-3.102500	3.102180	0.032135 	0.000907
-93.050000	-0.000344	-3.101667	3.101323	0.032143 	0.000907
-93.025000	-0.000369	-3.100833	3.100464	0.032151 	0.000907
-93.000000	-0.000393	-3.100000	3.099607	0.032159 	0.000907
-92.975000	-0.000418	-3.099167	3.098749	0.032167 	0.000907
-92.950000	-0.000442	-3.098333	3.097891	0.032175 	0.000907
-92.925000	-0.000467	-3.097500	3.097033	0.032183 	0.000908
-92.900000	-0.000491	-3.096667	3.096176	0.032190 	0.000908
-92.875000	-0.000516	-3.095833	3.095317	0.032198 	0.000908
-92.850000	-0.000540	-3.095000	3.094460	0.032206 	0.000908
-92.825000	-0.000565	-3.094167	3.093602	0.032214 	0.000908
-92.800000	-0.000590	-3.093333	3.092743	0.032221 	0.000908
-92.775000	-0.000614	-3.092500	3.091886	0.032229 	0.000908
-92.750000	-0.000639	-3.091667	3.091028	0.032236 	0.000908
-92.725000	-0.000663	-3.090833	3.090170	0.032244 	0.000909
-92.700000	-0.000688	-3.090000	3.089312	0.032251 	0.000909
-92.675000	-0.000712	-3.089167	3.088455	0.032259 	0.000909
-92.650000	-0.000737	-3.088333	3.087596	0.032266 	0.000909
-92.625000	-0.000761	-3.087500	3.086739	0.032274 	0.000909
-92.600000	-0.000786	-3.086667	3.085881	0.032281 	0.000909
-92.575000	-0.000811	-3.085833	3.085022	0.032288 	0.000909
-92.550000	-0.000835	-3.085000	3.084165	0.032295 	0.000909
-92.525000	-0.000860	-3.084167	3.083307	0.032302 	0.000910
-92.500000	-0.000884	-3.083333	3.082449	0.032310 	0.000910
-92.475000	-0.000909	-3.082500	3.081591	0.032317 	0.000910
-92.450000	-0.000934	-3.081667	3.080733	0.032324 	0.000910
-92.425000	-0.000958	-3.080833	3.079875	0.032331 	0.000910
-92.400000	-0.000983	-3.080000	3.079017	0.032338 	0.000910
-92.375000	-0.001008	-3.079167	3.078159	0.032345 	0.000910
-92.350000	-0.001032	-3.078333	3.077301	0.032351 	0.000910
-92.325000	-0.001057	-3.077500	3.076443	0.032358 	0.000911
-92.300000	-0.001081	-3.076667	3.075586	0.032365 	0.000911
-92.275000	-0.001106	-3.075833	3.074727	0.032372 	0.000911
-92.250000	-0.001131	-3.075000	3.073869	0.032378 	0.000911
-92.225000	-0.001155	-3.074167	3.073012	0.032385 	0.000911
-92.200000	-0.001180	-3.073333	3.072153	0.032392 	0.000911
-92.175000	-0.001205	-3.072500	3.071295	0.032398 	0.000911
-92.150000	-0.001229	-3.071667	3.070438	0.032405 	0.000912
-92.125000	-0.001254	-3.070833	3.069579	0.032411 	0.000912
-92.100000	-0.001279	-3.070000	3.068721	0.032418 	0.000912
-92.075000	-0.001303	-3.069167	3.067864	0.032424 	0.000912
-92.050000	-0.001328	-3.068333	3.067005	0.032430 	0.000912
-92.025000	-0.001353	-3.067500	3.066147	0.032437 	0.000912
-92.000000	-0.001377	-3.066667	3.065290	0.032443 	0.000912
-91.975000	-0.001402	-3.065833	3.064431	0.032449 	0.000912
-91.950000	-0.001427	-3.065000	3.063573	0.032455 	0.000913
-91.925000	-0.001452	-3.064167	3.062715	0.032462 	0.000913
-91.900000	-0.001476	-3.063333	3.061857	0.032468 	0.000913
-91.875000	-0.001501	-3.062500	3.060999	0.032474 	0.000913
-91.850000	-0.001526	-3.061667	3.060141	0.032480 	0.000913
-91.825000	-0.001550	-3.060833	3.059283	0.032486 	0.000913
-91.800000	-0.001575	-3.060000	3.058425	0.032491 	0.000913
-91.775000	-0.001600	-3.059167	3.057567	0.032497 	0.000913
-91.750000	-0.001625	-3.058333	3.056708	0.032503 	0.000914
-91.725000	-0.001649	-3.057500	3.055851	0.032509 	0.000914
-91.700000	-0.001674	-3.056667	3.054993	0.032515 	0.000914
-91.675000	-0.001699	-3.055833	3.054134	0.032520 	0.000914
-91.650000	-0.001724	-3.055000	3.053276	0.032526 	0.000914
-91.625000	-0.001748	-3.054167	3.052419	0.032532 	0.000914
-91.600000	-0.001773	-3.053333	3.051560	0.032537 	0.000914
-91.575000	-0.001798	-3.052500	3.050702	0.032543 	0.000914
-91.550000	-0.001823	-3.051667	3.049844	0.032548 	0.000915
-91.525000	-0.001847	-3.050833	3.048986	0.032554 	0.000915
-91.500000	-0.001872	-3.050000	3.048128	0.032559 	0.000915
-91.475000	-0.001897	-3.049167	3.047270	0.032564 	0.000915
-91.450000	-0.001922	-3.048333	3.046411	0.032569 	0.000915
-91.425000	-0.001947	-3.047500	3.045553	0.032575 	0.000915
-91.400000	-0.001971	-3.046667	3.044696	0.032580 	0.000915
-91.375000	-0.001996	-3.045833	3.043837	0.032585 	0.000915
-91.350000	-0.002021	-3.045000	3.042979	0.032590 	0.000916
-91.325000	-0.002046	-3.044167	3.042121	0.032595 	0.000916
-91.300000	-0.002071	-3.043333	3.041262	0.032600 	0.000916
-91.275000	-0.002095	-3.042500	3.040405	0.032605 	0.000916
-91.250000	-0.002120	-3.041667	3.039547	0.032610 	0.000916
-91.225000	-0.002145	-3.040833	3.038688	0.032615 	0.000916
-91.200000	-0.002170	-3.040000	3.037830	0.032620 	0.000916
-91.175000	-0.002195	-3.039167	3.036972	0.032625 	0.000917
-91.150000	-0.002220	-3.038333	3.036113	0.032629 	0.000917
-91.125000	-0.002244	-3.037500	3.035256	0.032634 	0.000917
-91.100000	-0.002269	-3.036667	3.034398	0.032639 	0.000917
-91.075000	-0.002294	-3.035833	3.033539	0.032643 	0.000917
-91.050000	-0.002319	-3.035000	3.032681	0.032648 	0.000917
-91.025000	-0.002344	-3.034167	3.031823	0.032652 	0.000917
-91.000000	-0.002369	-3.033333	3.030964	0.032657 	0.000917
-90.975000	-0.002393	-3.032500	3.030107	0.032661 	0.000918
-90.950000	-0.002418	-3.031667	3.029249	0.032666 	0.000918
-90.925000	-0.002443	-3.030833	3.028390	0.032670 	0.000918
-90.900000	-0.002468	-3.030000	3.027532	0.032674 	0.000918
-90.875000	-0.002493	-3.029167	3.026674	0.032678 	0.000918
-90.850000	-0.002518	-3.028333	3.025815	0.032683 	0.000918
-90.825000	-0.002543	-3.027500	3.024957	0.032687 	0.000918
-90.800000	-0.002567	-3.026667	3.024100	0.032691 	0.000918
-90.775000	-0.002592	-3.025833	3.023241	0.032695 	0.000919
-90.750000	-0.002617	-3.025000	3.022383	0.032699 	0.000919
-90.725000	-0.002642	-3.024167	3.021525	0.032703 	0.000919
-90.700000	-0.002667	-3.023333	3.020666	0.032707 	0.000919
-90.675000	-0.002692	-3.022500	3.019808	0.032711 	0.000919
-90.650000	-0.002717	-3.021667	3.018950	0.032714 	0.000919
-90.625000	-0.002742	-3.020833	3.018091	0.032718 	0.000919
-90.600000	-0.002767	-3.020000	3.017233	0.032722 	0.000920
-90.575000	-0.002791	-3.019167	3.016376	0.032726 	0.000920
-90.550000	-0.002816	-3.018333	3.015517	0.032729 	0.000920
-90.525000	-0.002841	-3.017500	3.014659	0.032733 	0.000920
-90.500000	-0.002866	-3.016667	3.013801	0.032736 	0.000920
-90.475000	-0.002891	-3.015833	3.012942	0.032740 	0.000920
-90.450000	-0.002916	-3.015000	3.012084	0.032743 	0.000920
-90.425000	-0.002941	-3.014167	3.011226	0.032747 	0.000920
-90.400000	-0.002966	-3.013333	3.010367	0.032750 	0.000921
-90.375000	-0.002991	-3.012500	3.009509	0.032753 	0.000921
-90.350000	-0.003016	-3.011667	3.008651	0.032757 	0.000921
-90.325000	-0.003040	-3.010833	3.007793	0.032760 	0.000921
-90.300000	-0.003065	-3.010000	3.006935	0.032763 	0.000921
-90.275000	-0.003090	-3.009167	3.006077	0.032766 	0.000921
-90.250000	-0.003115	-3.008333	3.005218	0.032769 	0.000921
-90.225000	-0.003140	-3.007500	3.004360	0.032772 	0.000921
-90.200000	-0.003165	-3.006667	3.003502	0.032775 	0.000922
-90.175000	-0.003190	-3.005833	3.002643	0.032778 	0.000922
-90.150000	-0.003215	-3.005000	3.001785	0.032781 	0.000922
-90.125000	-0.003240	-3.004167	3.000927	0.032784 	0.000922
-90.100000	-0.003265	-3.003333	3.000068	0.032787 	0.000922
-90.075000	-0.003290	-3.002500	2.999210	0.032789 	0.000922
-90.050000	-0.003315	-3.001667	2.998352	0.032792 	0.000922
-90.025000	-0.003340	-3.000833	2.997493	0.032795 	0.000923
-90.000000	-0.003365	-3.000000	2.996635	0.032797 	0.000923
-89.975000	-0.003390	-2.999167	2.995777	0.032800 	0.000923
-89.950000	-0.003415	-2.998333	2.994918	0.032802 	0.000923
-89.925000	-0.003439	-2.997500	2.994061	0.032805 	0.000923
-89.900000	-0.003464	-2.996667	2.993203	0.032807 	0.000923
-89.875000	-0.003489	-2.995833	2.992344	0.032809 	0.000923
-89.850000	-0.003514	-2.995000	2.991486	0.032812 	0.000923
-89.825000	-0.003539	-2.994167	2.990628	0.032814 	0.000924
-89.800000	-0.003564	-2.993333	2.989769	0.032816 	0.000924
-89.775000	-0.003589	-2.992500	2.988911	0.032818 	0.000924
-89.750000	-0.003614	-2.991667	2.988053	0.032820 	0.000924
-89.725000	-0.003639	-2.990833	2.987194	0.032822 	0.000924
-89.700000	-0.003664	-2.990000	2.986336	0.032824 	0.000924
-89.675000	-0.003689	-2.989167	2.985478	0.032826 	0.000924
-89.650000	-0.003714	-2.988333	2.984619	0.032828 	0.000925
-89.625000	-0.003739	-2.987500	2.983761	0.032830 	0.000925
-89.600000	-0.003764	-2.986667	2.982903	0.032832 	0.000925
-89.575000	-0.003789	-2.985833	2.982044	0.032834 	0.000925
-89.550000	-0.003814	-2.985000	2.981186	0.032836 	0.000925
-89.525000	-0.003839	-2.984167	2.980328	0.032837 	0.000925
-89.500000	-0.003864	-2.983333	2.979469	0.032839 	0.000925
-89.475000	-0.003889	-2.982500	2.978611	0.032840 	0.000925
-89.450000	-0.003914	-2.981667	2.977753	0.032842 	0.000926
-89.425000	-0.003939	-2.980833	2.976894	0.032843 	0.000926
-89.400000	-0.003964	-2.980000	2.976036	0.032845 	0.000926
-89.375000	-0.003989	-2.979167	2.975178	0.032846 	0.000926
-89.350000	-0.004014	-2.978333	2.974319	0.032848 	0.000926
-89.325000	-0.004039	-2.977500	2.973461	0.032849 	0.000926
-89.300000	-0.004064	-2.976667	2.972603	0.032850 	0.000926
-89.275000	-0.004089	-2.975833	2.971744	0.032851 	0.000927
-89.250000	-0.004114	-2.975000	2.970886	0.032852 	0.000927
-89.225000	-0.004139	-2.974167	2.970028	0.032853 	0.000927
-89.200000	-0.004164	-2.973333	2.969169	0.032855 	0.000927
-89.175000	-0.004189	-2.972500	2.968311	0.032856 	0.000927
-89.150000	-0.004214	-2.971667	2.967453	0.032856 	0.000927
-89.125000	-0.004239	-2.970833	2.966594	0.032857 	0.000927
-89.100000	-0.004264	-2.970000	2.965736	0.032858 	0.000927
-89.075000	-0.004289	-2.969167	2.964878	0.032859 	0.000928
-89.050000	-0.004314	-2.968333	2.964019	0.032860 	0.000928
-89.025000	-0.004339	-2.967500	2.963161	0.032861 	0.000928
-89.000000	-0.004364	-2.966667	2.962303	0.032861 	0.000928
-88.975000	-0.004389	-2.965833	2.961444	0.032862 	0.000928
-88.950000	-0.004414	-2.965000	2.960586	0.032862 	0.000928
-88.925000	-0.004439	-2.964167	2.959728	0.032863 	0.000928
-88.900000	-0.004463	-2.963333	2.958870	0.032863 	0.000929
-88.875000	-0.004488	-2.962500	2.958012	0.032864 	0.000929
-88.850000	-0.004513	-2.961667	2.957154	0.032864 	0.000929
-88.825000	-0.004538	-2.960833	2.956295	0.032864 	0.000929
-88.800000	-0.004563	-2.960000	2.955437	0.032865 	0.000929
-88.775000	-0.004588	-2.959167	2.954579	0.032865 	0.000929
-88.750000	-0.004613	-2.958333	2.953720	0.032865 	0.000929
-88.725000	-0.004638	-2.957500	2.952862	0.032865 	0.000929
-88.700000	-0.004663	-2.956667	2.952004	0.032865 	0.000930
-88.675000	-0.004688	-2.955833	2.951145	0.032865 	0.000930
-88.650000	-0.004713	-2.955000	2.950287	0.032865 	0.000930
-88.625000	-0.004738	-2.954167	2.949429	0.032865 	0.000930
-88.600000	-0.004763	-2.953333	2.948570	0.032865 	0.000930
-88.575000	-0.004788	-2.952500	2.947712	0.032865 	0.000930
-88.550000	-0.004813	-2.951667	2.946854	0.032864 	0.000930
-88.525000	-0.004838	-2.950833	2.945995	0.032864 	0.000931
-88.500000	-0.004863	-2.950000	2.945137	0.032864 	0.000931
-88.475000	-0.004888	-2.949167	2.944279	0.032863 	0.000931
-88.450000	-0.004913	-2.948333	2.943420	0.032863 	0.000931
-88.425000	-0.004938	-2.947500	2.942562	0.032862 	0.000931
-88.400000	-0.004963	-2.946667	2.941704	0.032862 	0.000931
-88.375000	-0.004988	-2.945833	2.940845	0.032861 	0.000931
-88.350000	-0.005013	-2.945000	2.939987	0.032861 	0.000932
-88.325000	-0.005038	-2.944167	2.939129	0.032860 	0.000932
-88.300000	-0.005063	-2.943333	2.938270	0.032859 	0.000932
-88.275000	-0.005088	-2.942500	2.937412	0.032858 	0.000932
-88.250000	-0.005113	-2.941667	2.936554	0.032858 	0.000932
-88.225000	-0.005138	-2.940833	2.935695	0.032857 	0.000932
-88.200000	-0.005163	-2.940000	2.934837	0.032856 	0.000932
-88.175000	-0.005188	-2.939167	2.933979	0.032855 	0.000932
-88.150000	-0.005213	-2.938333	2.933120	0.032854 	0.000933
-88.125000	-0.005238	-2.937500	2.932262	0.032853 	0.000933
-88.100000	-0.005263	-2.936667	2.931404	0.032851 	0.000933
-88.075000	-0.005288	-2.935833	2.930545	0.032850 	0.000933
-88.050000	-0.005313	-2.935000	2.929687	0.032849 	0.000933
-88.025000	-0.005338	-2.934167	2.928829	0.032848 	0.000933
-88.000000	-0.005363	-2.933333	2.927970	0.032846 	0.000933
-87.975000	-0.005388	-2.932500	2.927112	0.032845 	0.000934
-87.950000	-0.005413	-2.931667	2.926254	0.032843 	0.000934
-87.925000	-0.005438	-2.930833	2.925395	0.032842 	0.000934
-87.900000	-0.005463	-2.930000	2.924537	0.032840 	0.000934
-87.875000	-0.005488	-2.929167	2.923679	0.032839 	0.000934
-87.850000	-0.005513	-2.928333	2.922820	0.032837 	0.000934
-87.825000	-0.005538	-2.927500	2.921962	0.032835 	0.000934
-87.800000	-0.005563	-2.926667	2.921104	0.032833 	0.000935
-87.775000	-0.005588	-2.925833	2.920245	0.032832 	0.000935
-87.750000	-0.005613	-2.925000	2.919387	0.032830 	0.000935
-87.725000	-0.005638	-2.924167	2.918529	0.032828 	0.000935
-87.700000	-0.005663	-2.923333	2.917670	0.032826 	0.000935
-87.675000	-0.005687	-2.922500	2.916813	0.032824 	0.000935
-87.650000	-0.005712	-2.921667	2.915955	0.032822 	0.000935
-87.625000	-0.005737	-2.920833	2.915096	0.032820 	0.000935
-87.600000	-0.005762	-2.920000	2.914238	0.032817 	0.000936
-87.575000	-0.005787	-2.919167	2.913380	0.032815 	0.000936
-87.550000	-0.005812	-2.918333	2.912521	0.032813 	0.000936
-87.525000	-0.005837	-2.917500	2.911663	0.032811 	0.000936
-87.500000	-0.005862	-2.916667	2.910805	0.032808 	0.000936
-87.475000	-0.005887	-2.915833	2.909946	0.032806 	0.000936
-87.450000	-0.005912	-2.915000	2.909088	0.032803 	0.000936
-87.425000	-0.005937	-2.914167	2.908230	0.032801 	0.000937
-87.400000	-0.005962	-2.913333	2.907371	0.032798 	0.000937
-87.375000	-0.005987	-2.912500	2.906513	0.032795 	0.000937
-87.350000	-0.006012	-2.911667	2.905655	0.032793 	0.000937
-87.325000	-0.006037	-2.910833	2.904796	0.032790 	0.000937
-87.300000	-0.006062	-2.910000	2.903938	0.032787 	0.000937
-87.275000	-0.006087	-2.909167	2.903080	0.032784 	0.000937
-87.250000	-0.006112	-2.908333	2.902221	0.032781 	0.000938