VARIABLES = X,Ksi,B,H,U,tau 
ZONE T="Time 20.000000", I=4400, DATAPACKING=POINT
-100.000000	-0.002341	-3.333333	3.330992	0.038522 	0.000875
-99.975000	-0.003198	-3.332500	3.329302	0.040033 	0.000875
-99.950000	-0.002812	-3.331667	3.328855	0.039413 	0.000875
-99.925000	-0.002962	-3.330833	3.327871	0.039713 	0.000876
-99.900000	-0.002881	-3.330000	3.327119	0.039615 	0.000876
-99.875000	-0.002899	-3.329167	3.326268	0.039689 	0.000876
-99.850000	-0.002875	-3.328333	3.325458	0.039689 	0.000876
-99.825000	-0.002869	-3.327500	3.324631	0.039721 	0.000876
-99.800000	-0.002855	-3.326667	3.323812	0.039739 	0.000876
-99.775000	-0.002845	-3.325833	3.322988	0.039763 	0.000876
-99.750000	-0.002833	-3.325000	3.322167	0.039784 	0.000876
-99.725000	-0.002822	-3.324167	3.321345	0.039807 	0.000876
-99.700000	-0.002810	-3.323333	3.320523	0.039828 	0.000877
-99.675000	-0.002798	-3.322500	3.319702	0.039850 	0.000877
-99.650000	-0.002787	-3.321667	3.318880	0.039872 	0.000877
-99.625000	-0.002775	-3.320833	3.318058	0.039894 	0.000877
-99.600000	-0.002764	-3.320000	3.317236	0.039916 	0.000877
-99.575000	-0.002752	-3.319167	3.316415	0.039938 	0.000877
-99.550000	-0.002741	-3.318333	3.315592	0.039960 	0.000877
-99.525000	-0.002729	-3.317500	3.314771	0.039981 	0.000877
-99.500000	-0.002718	-3.316667	3.313949	0.040003 	0.000877
-99.475000	-0.002706	-3.315833	3.313127	0.040025 	0.000877
-99.450000	-0.002694	-3.315000	3.312306	0.040046 	0.000878
-99.425000	-0.002683	-3.314167	3.311484	0.040068 	0.000878
-99.400000	-0.002671	-3.313333	3.310662	0.040090 	0.000878
-99.375000	-0.002660	-3.312500	3.309840	0.040111 	0.000878
-99.350000	-0.002648	-3.311667	3.309019	0.040133 	0.000878
-99.325000	-0.002636	-3.310833	3.308197	0.040154 	0.000878
-99.300000	-0.002625	-3.310000	3.307375	0.040176 	0.000878
-99.275000	-0.002613	-3.309167	3.306554	0.040197 	0.000878
-99.250000	-0.002601	-3.308333	3.305732	0.040218 	0.000878
-99.225000	-0.002590	-3.307500	3.304910	0.040240 	0.000879
-99.200000	-0.002578	-3.306667	3.304089	0.040261 	0.000879
-99.175000	-0.002566	-3.305833	3.303267	0.040282 	0.000879
-99.150000	-0.002555	-3.305000	3.302445	0.040303 	0.000879
-99.125000	-0.002543	-3.304167	3.301624	0.040324 	0.000879
-99.100000	-0.002531	-3.303333	3.300802	0.040345 	0.000879
-99.075000	-0.002520	-3.302500	3.299980	0.040366 	0.000879
-99.050000	-0.002508	-3.301667	3.299159	0.040387 	0.000879
-99.025000	-0.002496	-3.300833	3.298337	0.040408 	0.000879
-99.000000	-0.002485	-3.300000	3.297515	0.040429 	0.000880
-98.975000	-0.002473	-3.299167	3.296694	0.040450 	0.000880
-98.950000	-0.002461	-3.298333	3.295872	0.040471 	0.000880
-98.925000	-0.002449	-3.297500	3.295051	0.040492 	0.000880
-98.900000	-0.002438	-3.296667	3.294229	0.040513 	0.000880
-98.875000	-0.002426	-3.295833	3.293407	0.040534 	0.000880
-98.850000	-0.002414	-3.295000	3.292586	0.040554 	0.000880
-98.825000	-0.002402	-3.294167	3.291765	0.040575 	0.000880
-98.800000	-0.002391	-3.293333	3.290942	0.040596 	0.000880
-98.775000	-0.002379	-3.292500	3.290121	0.040616 	0.000881
-98.750000	-0.002367	-3.291667	3.289300	0.040637 	0.000881
-98.725000	-0.002355	-3.290833	3.288478	0.040657 	0.000881
-98.700000	-0.002343	-3.290000	3.287657	0.040678 	0.000881
-98.675000	-0.002332	-3.289167	3.286835	0.040698 	0.000881
-98.650000	-0.002320	-3.288333	3.286013	0.040719 	0.000881
-98.625000	-0.002308	-3.287500	3.285192	0.040739 	0.000881
-98.600000	-0.002296	-3.286667	3.284371	0.040759 	0.000881
-98.575000	-0.002284	-3.285833	3.283549	0.040780 	0.000881
-98.550000	-0.002272	-3.285000	3.282728	0.040800 	0.000882
-98.525000	-0.002261	-3.284167	3.281906	0.040820 	0.000882
-98.500000	-0.002249	-3.283333	3.281084	0.040840 	0.000882
-98.475000	-0.002237	-3.282500	3.280263	0.040860 	0.000882
-98.450000	-0.002225	-3.281667	3.279442	0.040880 	0.000882
-98.425000	-0.002213	-3.280833	3.278620	0.040900 	0.000882
-98.400000	-0.002201	-3.280000	3.277799	0.040920 	0.000882
-98.375000	-0.002189	-3.279167	3.276978	0.040940 	0.000882
-98.350000	-0.002177	-3.278333	3.276156	0.040960 	0.000882
-98.325000	-0.002165	-3.277500	3.275335	0.040980 	0.000883
-98.300000	-0.002154	-3.276667	3.274513	0.041000 	0.000883
-98.275000	-0.002142	-3.275833	3.273691	0.041020 	0.000883
-98.250000	-0.002130	-3.275000	3.272870	0.041040 	0.000883
-98.225000	-0.002118	-3.274167	3.272049	0.041059 	0.000883
-98.200000	-0.002106	-3.273333	3.271227	0.041079 	0.000883
-98.175000	-0.002094	-3.272500	3.270406	0.041099 	0.000883
-98.150000	-0.002082	-3.271667	3.269585	0.041118 	0.000883
-98.125000	-0.002070	-3.270833	3.268763	0.041138 	0.000883
-98.100000	-0.002058	-3.270000	3.267942	0.041157 	0.000884
-98.075000	-0.002046	-3.269167	3.267121	0.041177 	0.000884
-98.050000	-0.002034	-3.268333	3.266299	0.041196 	0.000884
-98.025000	-0.002022	-3.267500	3.265478	0.041216 	0.000884
-98.000000	-0.002010	-3.266667	3.264657	0.041235 	0.000884
-97.975000	-0.001998	-3.265833	3.263835	0.041254 	0.000884
-97.950000	-0.001986	-3.265000	3.263014	0.041274 	0.000884
-97.925000	-0.001974	-3.264167	3.262193	0.041293 	0.000884
-97.900000	-0.001962	-3.263333	3.261371	0.041312 	0.000884
-97.875000	-0.001950	-3.262500	3.260550	0.041331 	0.000885
-97.850000	-0.001938	-3.261667	3.259729	0.041350 	0.000885
-97.825000	-0.001926	-3.260833	3.258907	0.041369 	0.000885
-97.800000	-0.001914	-3.260000	3.258086	0.041389 	0.000885
-97.775000	-0.001902	-3.259167	3.257265	0.041407 	0.000885
-97.750000	-0.001890	-3.258333	3.256443	0.041426 	0.000885
-97.725000	-0.001878	-3.257500	3.255622	0.041445 	0.000885
-97.700000	-0.001866	-3.256667	3.254801	0.041464 	0.000885
-97.675000	-0.001853	-3.255833	3.253980	0.041483 	0.000885
-97.650000	-0.001841	-3.255000	3.253159	0.041502 	0.000886
-97.625000	-0.001829	-3.254167	3.252338	0.041521 	0.000886
-97.600000	-0.001817	-3.253333	3.251516	0.041539 	0.000886
-97.575000	-0.001805	-3.252500	3.250695	0.041558 	0.000886
-97.550000	-0.001793	-3.251667	3.249874	0.041577 	0.000886
-97.525000	-0.001781	-3.250833	3.249052	0.041595 	0.000886
-97.500000	-0.001769	-3.250000	3.248231	0.041614 	0.000886
-97.475000	-0.001757	-3.249167	3.247410	0.041632 	0.000886
-97.450000	-0.001744	-3.248333	3.246589	0.041651 	0.000886
-97.425000	-0.001732	-3.247500	3.245768	0.041669 	0.000887
-97.400000	-0.001720	-3.246667	3.244947	0.041687 	0.000887
-97.375000	-0.001708	-3.245833	3.244125	0.041706 	0.000887
-97.350000	-0.001696	-3.245000	3.243304	0.041724 	0.000887
-97.325000	-0.001684	-3.244167	3.242483	0.041742 	0.000887
-97.300000	-0.001671	-3.243333	3.241662	0.041760 	0.000887
-97.275000	-0.001659	-3.242500	3.240841	0.041779 	0.000887
-97.250000	-0.001647	-3.241667	3.240020	0.041797 	0.000887
-97.225000	-0.001635	-3.240833	3.239198	0.041815 	0.000887
-97.200000	-0.001623	-3.240000	3.238377	0.041833 	0.000888
-97.175000	-0.001610	-3.239167	3.237557	0.041851 	0.000888
-97.150000	-0.001598	-3.238333	3.236735	0.041869 	0.000888
-97.125000	-0.001586	-3.237500	3.235914	0.041887 	0.000888
-97.100000	-0.001574	-3.236667	3.235093	0.041905 	0.000888
-97.075000	-0.001561	-3.235833	3.234272	0.041922 	0.000888
-97.050000	-0.001549	-3.235000	3.233451	0.041940 	0.000888
-97.025000	-0.001537	-3.234167	3.232630	0.041958 	0.000888
-97.000000	-0.001525	-3.233333	3.231808	0.041976 	0.000888
-96.975000	-0.001512	-3.232500	3.230988	0.041993 	0.000889
-96.950000	-0.001500	-3.231667	3.230167	0.042011 	0.000889
-96.925000	-0.001488	-3.230833	3.229345	0.042028 	0.000889
-96.900000	-0.001476	-3.230000	3.228524	0.042046 	0.000889
-96.875000	-0.001463	-3.229167	3.227704	0.042063 	0.000889
-96.850000	-0.001451	-3.228333	3.226882	0.042081 	0.000889
-96.825000	-0.001439	-3.227500	3.226061	0.042098 	0.000889
-96.800000	-0.001426	-3.226667	3.225241	0.042115 	0.000889
-96.775000	-0.001414	-3.225833	3.224419	0.042133 	0.000889
-96.750000	-0.001402	-3.225000	3.223598	0.042150 	0.000890
-96.725000	-0.001389	-3.224167	3.222778	0.042167 	0.000890
-96.700000	-0.001377	-3.223333	3.221956	0.042184 	0.000890
-96.675000	-0.001365	-3.222500	3.221135	0.042202 	0.000890
-96.650000	-0.001352	-3.221667	3.220315	0.042219 	0.000890
-96.625000	-0.001340	-3.220833	3.219493	0.042236 	0.000890
-96.600000	-0.001328	-3.220000	3.218672	0.042253 	0.000890
-96.575000	-0.001315	-3.219167	3.217852	0.042270 	0.000890
-96.550000	-0.001303	-3.218333	3.217030	0.042287 	0.000890
-96.525000	-0.001291	-3.217500	3.216209	0.042304 	0.000891
-96.500000	-0.001278	-3.216667	3.215389	0.042320 	0.000891
-96.475000	-0.001266	-3.215833	3.214567	0.042337 	0.000891
-96.450000	-0.001253	-3.215000	3.213747	0.042354 	0.000891
-96.425000	-0.001241	-3.214167	3.212926	0.042371 	0.000891
-96.400000	-0.001229	-3.213333	3.212104	0.042387 	0.000891
-96.375000	-0.001216	-3.212500	3.211284	0.042404 	0.000891
-96.350000	-0.001204	-3.211667	3.210463	0.042421 	0.000891
-96.325000	-0.001191	-3.210833	3.209642	0.042437 	0.000892
-96.300000	-0.001179	-3.210000	3.208821	0.042453 	0.000892
-96.275000	-0.001167	-3.209167	3.208000	0.042470 	0.000892
-96.250000	-0.001154	-3.208333	3.207179	0.042486 	0.000892
-96.225000	-0.001142	-3.207500	3.206358	0.042503 	0.000892
-96.200000	-0.001129	-3.206667	3.205538	0.042519 	0.000892
-96.175000	-0.001117	-3.205833	3.204716	0.042535 	0.000892
-96.150000	-0.001104	-3.205000	3.203896	0.042551 	0.000892
-96.125000	-0.001092	-3.204167	3.203075	0.042567 	0.000892
-96.100000	-0.001079	-3.203333	3.202254	0.042584 	0.000893
-96.075000	-0.001067	-3.202500	3.201433	0.042600 	0.000893
-96.050000	-0.001055	-3.201667	3.200612	0.042616 	0.000893
-96.025000	-0.001042	-3.200833	3.199791	0.042632 	0.000893
-96.000000	-0.001030	-3.200000	3.198970	0.042647 	0.000893
-95.975000	-0.001017	-3.199167	3.198150	0.042663 	0.000893
-95.950000	-0.001005	-3.198333	3.197328	0.042679 	0.000893
-95.925000	-0.000992	-3.197500	3.196508	0.042695 	0.000893
-95.900000	-0.000980	-3.196667	3.195687	0.042711 	0.000893
-95.875000	-0.000967	-3.195833	3.194866	0.042726 	0.000894
-95.850000	-0.000955	-3.195000	3.194045	0.042742 	0.000894
-95.825000	-0.000942	-3.194167	3.193225	0.042758 	0.000894
-95.800000	-0.000929	-3.193333	3.192404	0.042773 	0.000894
-95.775000	-0.000917	-3.192500	3.191583	0.042789 	0.000894
-95.750000	-0.000904	-3.191667	3.190763	0.042804 	0.000894
-95.725000	-0.000892	-3.190833	3.189941	0.042820 	0.000894
-95.700000	-0.000879	-3.190000	3.189121	0.042835 	0.000894
-95.675000	-0.000867	-3.189167	3.188300	0.042850 	0.000894
-95.650000	-0.000854	-3.188333	3.187479	0.042866 	0.000895
-95.625000	-0.000842	-3.187500	3.186658	0.042881 	0.000895
-95.600000	-0.000829	-3.186667	3.185838	0.042896 	0.000895
-95.575000	-0.000816	-3.185833	3.185017	0.042911 	0.000895
-95.550000	-0.000804	-3.185000	3.184196	0.042927 	0.000895
-95.525000	-0.000791	-3.184167	3.183376	0.042942 	0.000895
-95.500000	-0.000779	-3.183333	3.182554	0.042957 	0.000895
-95.475000	-0.000766	-3.182500	3.181734	0.042972 	0.000895
-95.450000	-0.000753	-3.181667	3.180914	0.042987 	0.000896
-95.425000	-0.000741	-3.180833	3.180092	0.043001 	0.000896
-95.400000	-0.000728	-3.180000	3.179272	0.043016 	0.000896
-95.375000	-0.000716	-3.179167	3.178451	0.043031 	0.000896
-95.350000	-0.000703	-3.178333	3.177630	0.043046 	0.000896
-95.325000	-0.000690	-3.177500	3.176810	0.043061 	0.000896
-95.300000	-0.000678	-3.176667	3.175989	0.043075 	0.000896
-95.275000	-0.000665	-3.175833	3.175168	0.043090 	0.000896
-95.250000	-0.000652	-3.175000	3.174348	0.043104 	0.000896
-95.225000	-0.000640	-3.174167	3.173527	0.043119 	0.000897
-95.200000	-0.000627	-3.173333	3.172706	0.043133 	0.000897
-95.175000	-0.000614	-3.172500	3.171886	0.043148 	0.000897
-95.150000	-0.000602	-3.171667	3.171065	0.043162 	0.000897
-95.125000	-0.000589	-3.170833	3.170244	0.043177 	0.000897
-95.100000	-0.000576	-3.170000	3.169424	0.043191 	0.000897
-95.075000	-0.000564	-3.169167	3.168603	0.043205 	0.000897
-95.050000	-0.000551	-3.168333	3.167782	0.043219 	0.000897
-95.025000	-0.000538	-3.167500	3.166962	0.043233 	0.000898
-95.000000	-0.000526	-3.166667	3.166141	0.043247 	0.000898
-94.975000	-0.000513	-3.165833	3.165320	0.043262 	0.000898
-94.950000	-0.000500	-3.165000	3.164500	0.043276 	0.000898
-94.925000	-0.000487	-3.164167	3.163680	0.043290 	0.000898
-94.900000	-0.000475	-3.163333	3.162858	0.043303 	0.000898
-94.875000	-0.000462	-3.162500	3.162038	0.043317 	0.000898
-94.850000	-0.000449	-3.161667	3.161218	0.043331 	0.000898
-94.825000	-0.000437	-3.160833	3.160396	0.043345 	0.000898
-94.800000	-0.000424	-3.160000	3.159576	0.043359 	0.000899
-94.775000	-0.000411	-3.159167	3.158756	0.043372 	0.000899
-94.750000	-0.000398	-3.158333	3.157935	0.043386 	0.000899
-94.725000	-0.000386	-3.157500	3.157114	0.043400 	0.000899
-94.700000	-0.000373	-3.156667	3.156294	0.043413 	0.000899
-94.675000	-0.000360	-3.155833	3.155473	0.043427 	0.000899
-94.650000	-0.000347	-3.155000	3.154653	0.043440 	0.000899
-94.625000	-0.000334	-3.154167	3.153833	0.043453 	0.000899
-94.600000	-0.000322	-3.153333	3.153011	0.043467 	0.000899
-94.575000	-0.000309	-3.152500	3.152191	0.043480 	0.000900
-94.550000	-0.000296	-3.151667	3.151371	0.043493 	0.000900
-94.525000	-0.000283	-3.150833	3.150550	0.043506 	0.000900
-94.500000	-0.000271	-3.150000	3.149729	0.043520 	0.000900
-94.475000	-0.000258	-3.149167	3.148909	0.043533 	0.000900
-94.450000	-0.000245	-3.148333	3.148088	0.043546 	0.000900
-94.425000	-0.000232	-3.147500	3.147268	0.043559 	0.000900
-94.400000	-0.000219	-3.146667	3.146448	0.043572 	0.000900
-94.375000	-0.000206	-3.145833	3.145627	0.043585 	0.000901
-94.350000	-0.000194	-3.145000	3.144806	0.043597 	0.000901
-94.325000	-0.000181	-3.144167	3.143986	0.043610 	0.000901
-94.300000	-0.000168	-3.143333	3.143165	0.043623 	0.000901
-94.275000	-0.000155	-3.142500	3.142345	0.043636 	0.000901
-94.250000	-0.000142	-3.141667	3.141525	0.043648 	0.000901
-94.225000	-0.000129	-3.140833	3.140704	0.043661 	0.000901
-94.200000	-0.000117	-3.140000	3.139883	0.043674 	0.000901
-94.175000	-0.000104	-3.139167	3.139063	0.043686 	0.000901
-94.150000	-0.000091	-3.138333	3.138242	0.043699 	0.000902
-94.125000	-0.000078	-3.137500	3.137422	0.043711 	0.000902
-94.100000	-0.000065	-3.136667	3.136602	0.043723 	0.000902
-94.075000	-0.000052	-3.135833	3.135781	0.043736 	0.000902
-94.050000	-0.000039	-3.135000	3.134961	0.043748 	0.000902
-94.025000	-0.000027	-3.134167	3.134140	0.043760 	0.000902
-94.000000	-0.000014	-3.133333	3.133319	0.043772 	0.000902
-93.975000	-0.000001	-3.132500	3.132499	0.043785 	0.000902
-93.950000	0.000012	-3.131667	3.131679	0.043797 	0.000903
-93.925000	0.000025	-3.130833	3.130858	0.043809 	0.000903
-93.900000	0.000038	-3.130000	3.130038	0.043821 	0.000903
-93.875000	0.000051	-3.129167	3.129218	0.043833 	0.000903
-93.850000	0.000064	-3.128333	3.128397	0.043845 	0.000903
-93.825000	0.000077	-3.127500	3.127577	0.043856 	0.000903
-93.800000	0.000090	-3.126667	3.126757	0.043868 	0.000903
-93.775000	0.000102	-3.125833	3.125935	0.043880 	0.000903
-93.750000	0.000115	-3.125000	3.125115	0.043892 	0.000903
-93.725000	0.000128	-3.124167	3.124295	0.043903 	0.000904
-93.700000	0.000141	-3.123333	3.123474	0.043915 	0.000904
-93.675000	0.000154	-3.122500	3.122654	0.043926 	0.000904
-93.650000	0.000167	-3.121667	3.121834	0.043938 	0.000904
-93.625000	0.000180	-3.120833	3.121013	0.043949 	0.000904
-93.600000	0.000193	-3.120000	3.120193	0.043961 	0.000904
-93.575000	0.000206	-3.119167	3.119373	0.043972 	0.000904
-93.550000	0.000219	-3.118333	3.118552	0.043983 	0.000904
-93.525000	0.000232	-3.117500	3.117732	0.043995 	0.000905
-93.500000	0.000245	-3.116667	3.116912	0.044006 	0.000905
-93.475000	0.000258	-3.115833	3.116091	0.044017 	0.000905
-93.450000	0.000271	-3.115000	3.115271	0.044028 	0.000905
-93.425000	0.000284	-3.114167	3.114451	0.044039 	0.000905
-93.400000	0.000297	-3.113333	3.113630	0.044050 	0.000905
-93.375000	0.000310	-3.112500	3.112810	0.044061 	0.000905
-93.350000	0.000323	-3.111667	3.111990	0.044072 	0.000905
-93.325000	0.000336	-3.110833	3.111169	0.044083 	0.000906
-93.300000	0.000349	-3.110000	3.110349	0.044093 	0.000906
-93.275000	0.000362	-3.109167	3.109529	0.044104 	0.000906
-93.250000	0.000375	-3.108333	3.108708	0.044115 	0.000906
-93.225000	0.000388	-3.107500	3.107888	0.044126 	0.000906
-93.200000	0.000401	-3.106667	3.107068	0.044136 	0.000906
-93.175000	0.000414	-3.105833	3.106247	0.044147 	0.000906
-93.150000	0.000427	-3.105000	3.105427	0.044157 	0.000906
-93.125000	0.000440	-3.104167	3.104607	0.044168 	0.000906
-93.100000	0.000453	-3.103333	3.103786	0.044178 	0.000907
-93.075000	0.000466	-3.102500	3.102966	0.044188 	0.000907
-93.050000	0.000479	-3.101667	3.102146	0.044199 	0.000907
-93.025000	0.000492	-3.100833	3.101325	0.044209 	0.000907
-93.000000	0.000505	-3.100000	3.100505	0.044219 	0.000907
-92.975000	0.000518	-3.099167	3.099685	0.044229 	0.000907
-92.950000	0.000531	-3.098333	3.098864	0.044239 	0.000907
-92.925000	0.000544	-3.097500	3.098044	0.044249 	0.000907
-92.900000	0.000557	-3.096667	3.097224	0.044259 	0.000908
-92.875000	0.000570	-3.095833	3.096403	0.044269 	0.000908
-92.850000	0.000583	-3.095000	3.095583	0.044279 	0.000908
-92.825000	0.000596	-3.094167	3.094763	0.044289 	0.000908
-92.800000	0.000610	-3.093333	3.093943	0.044299 	0.000908
-92.775000	0.000623	-3.092500	3.093123	0.044308 	0.000908
-92.750000	0.000636	-3.091667	3.092303	0.044318 	0.000908
-92.725000	0.000649	-3.090833	3.091482	0.044328 	0.000908
-92.700000	0.000662	-3.090000	3.090662	0.044337 	0.000909
-92.675000	0.000675	-3.089167	3.089842	0.044347 	0.000909
-92.650000	0.000688	-3.088333	3.089021	0.044356 	0.000909
-92.625000	0.000701	-3.087500	3.088201	0.044366 	0.000909
-92.600000	0.000714	-3.086667	3.087381	0.044375 	0.000909
-92.575000	0.000727	-3.085833	3.086560	0.044384 	0.000909
-92.550000	0.000740	-3.085000	3.085740	0.044393 	0.000909
-92.525000	0.000754	-3.084167	3.084921	0.044403 	0.000909
-92.500000	0.000767	-3.083333	3.084100	0.044412 	0.000909
-92.475000	0.000780	-3.082500	3.083280	0.044421 	0.000910
-92.450000	0.000793	-3.081667	3.082460	0.044430 	0.000910
-92.425000	0.000806	-3.080833	3.081639	0.044439 	0.000910
-92.400000	0.000819	-3.080000	3.080819	0.044448 	0.000910
-92.375000	0.000832	-3.079167	3.079999	0.044457 	0.000910
-92.350000	0.000845	-3.078333	3.079178	0.044466 	0.000910
-92.325000	0.000858	-3.077500	3.078358	0.044474 	0.000910
-92.300000	0.000872	-3.076667	3.077539	0.044483 	0.000910
-92.275000	0.000885	-3.075833	3.076718	0.044492 	0.000911
-92.250000	0.000898	-3.075000	3.075898	0.044500 	0.000911
-92.225000	0.000911	-3.074167	3.075078	0.044509 	0.000911
-92.200000	0.000924	-3.073333	3.074257	0.044518 	0.000911
-92.175000	0.000937	-3.072500	3.073437	0.044526 	0.000911
-92.150000	0.000950	-3.071667	3.072617	0.044534 	0.000911
-92.125000	0.000964	-3.070833	3.071797	0.044543 	0.000911
-92.100000	0.000977	-3.070000	3.070977	0.044551 	0.000911
-92.075000	0.000990	-3.069167	3.070157	0.044559 	0.000912
-92.050000	0.001003	-3.068333	3.069336	0.044568 	0.000912
-92.025000	0.001016	-3.067500	3.068516	0.044576 	0.000912
-92.000000	0.001029	-3.066667	3.067696	0.044584 	0.000912
-91.975000	0.001043	-3.065833	3.066876	0.044592 	0.000912
-91.950000	0.001056	-3.065000	3.066056	0.044600 	0.000912
-91.925000	0.001069	-3.064167	3.065236	0.044608 	0.000912
-91.900000	0.001082	-3.063333	3.064415	0.044616 	0.000912
-91.875000	0.001095	-3.062500	3.063595	0.044623 	0.000913
-91.850000	0.001109	-3.061667	3.062776	0.044631 	0.000913
-91.825000	0.001122	-3.060833	3.061955	0.044639 	0.000913
-91.800000	0.001135	-3.060000	3.061135	0.044647 	0.000913
-91.775000	0.001148	-3.059167	3.060315	0.044654 	0.000913
-91.750000	0.001161	-3.058333	3.059494	0.044662 	0.000913
-91.725000	0.001174	-3.057500	3.058674	0.044669 	0.000913
-91.700000	0.001188	-3.056667	3.057855	0.044677 	0.000913
-91.675000	0.001201	-3.055833	3.057034	0.044684 	0.000913
-91.650000	0.001214	-3.055000	3.056214	0.044692 	0.000914
-91.625000	0.001227	-3.054167	3.055394	0.044699 	0.000914
-91.600000	0.001241	-3.053333	3.054574	0.044706 	0.000914
-91.575000	0.001254	-3.052500	3.053754	0.044713 	0.000914
-91.550000	0.001267	-3.051667	3.052934	0.044720 	0.000914
-91.525000	0.001280	-3.050833	3.052113	0.044727 	0.000914
-91.500000	0.001293	-3.050000	3.051293	0.044734 	0.000914
-91.475000	0.001307	-3.049167	3.050474	0.044741 	0.000914
-91.450000	0.001320	-3.048333	3.049653	0.044748 	0.000915
-91.425000	0.001333	-3.047500	3.048833	0.044755 	0.000915
-91.400000	0.001346	-3.046667	3.048013	0.044762 	0.000915
-91.375000	0.001360	-3.045833	3.047193	0.044769 	0.000915
-91.350000	0.001373	-3.045000	3.046373	0.044775 	0.000915
-91.325000	0.001386	-3.044167	3.045553	0.044782 	0.000915
-91.300000	0.001399	-3.043333	3.044732	0.044789 	0.000915
-91.275000	0.001412	-3.042500	3.043912	0.044795 	0.000915
-91.250000	0.001426	-3.041667	3.043093	0.044802 	0.000916
-91.225000	0.001439	-3.040833	3.042272	0.044808 	0.000916
-91.200000	0.001452	-3.040000	3.041452	0.044815 	0.000916
-91.175000	0.001465	-3.039167	3.040632	0.044821 	0.000916
-91.150000	0.001479	-3.038333	3.039812	0.044827 	0.000916
-91.125000	0.001492	-3.037500	3.038992	0.044833 	0.000916
-91.100000	0.001505	-3.036667	3.038172	0.044839 	0.000916
-91.075000	0.001519	-3.035833	3.037352	0.044846 	0.000916
-91.050000	0.001532	-3.035000	3.036532	0.044852 	0.000917
-91.025000	0.001545	-3.034167	3.035712	0.044858 	0.000917
-91.000000	0.001558	-3.033333	3.034891	0.044863 	0.000917
-90.975000	0.001572	-3.032500	3.034072	0.044869 	0.000917
-90.950000	0.001585	-3.031667	3.033252	0.044875 	0.000917
-90.925000	0.001598	-3.030833	3.032431	0.044881 	0.000917
-90.900000	0.001611	-3.030000	3.031611	0.044887 	0.000917
-90.875000	0.001625	-3.029167	3.030792	0.044892 	0.000917
-90.850000	0.001638	-3.028333	3.029971	0.044898 	0.000918
-90.825000	0.001651	-3.027500	3.029151	0.044903 	0.000918
-90.800000	0.001665	-3.026667	3.028332	0.044909 	0.000918
-90.775000	0.001678	-3.025833	3.027511	0.044914 	0.000918
-90.750000	0.001691	-3.025000	3.026691	0.044920 	0.000918
-90.725000	0.001704	-3.024167	3.025871	0.044925 	0.000918
-90.700000	0.001718	-3.023333	3.025051	0.044930 	0.000918
-90.675000	0.001731	-3.022500	3.024231	0.044936 	0.000918
-90.650000	0.001744	-3.021667	3.023411	0.044941 	0.000919
-90.625000	0.001758	-3.020833	3.022591	0.044946 	0.000919
-90.600000	0.001771	-3.020000	3.021771	0.044951 	0.000919
-90.575000	0.001784	-3.019167	3.020951	0.044956 	0.000919
-90.550000	0.001797	-3.018333	3.020130	0.044961 	0.000919
-90.525000	0.001811	-3.017500	3.019311	0.044966 	0.000919
-90.500000	0.001824	-3.016667	3.018491	0.044970 	0.000919
-90.475000	0.001837	-3.015833	3.017670	0.044975 	0.000919
-90.450000	0.001851	-3.015000	3.016851	0.044980 	0.000920
-90.425000	0.001864	-3.014167	3.016031	0.044985 	0.000920
-90.400000	0.001877	-3.013333	3.015210	0.044989 	0.000920
-90.375000	0.001891	-3.012500	3.014391	0.044994 	0.000920
-90.350000	0.001904	-3.011667	3.013571	0.044998 	0.000920
-90.325000	0.001917	-3.010833	3.012750	0.045003 	0.000920
-90.300000	0.001931	-3.010000	3.011931	0.045007 	0.000920
-90.275000	0.001944	-3.009167	3.011111	0.045011 	0.000920
-90.250000	0.001957	-3.008333	3.010290	0.045015 	0.000921
-90.225000	0.001970	-3.007500	3.009470	0.045020 	0.000921
-90.200000	0.001984	-3.006667	3.008651	0.045024 	0.000921
-90.175000	0.001997	-3.005833	3.007830	0.045028 	0.000921
-90.150000	0.002010	-3.005000	3.007010	0.045032 	0.000921
-90.125000	0.002024	-3.004167	3.006191	0.045036 	0.000921
-90.100000	0.002037	-3.003333	3.005370	0.045040 	0.000921
-90.075000	0.002050	-3.002500	3.004550	0.045044 	0.000921
-90.050000	0.002064	-3.001667	3.003731	0.045047 	0.000922
-90.025000	0.002077	-3.000833	3.002910	0.045051 	0.000922
-90.000000	0.002090	-3.000000	3.002090	0.045055 	0.000922
-89.975000	0.002104	-2.999167	3.001271	0.045058 	0.000922
-89.950000	0.002117	-2.998333	3.000450	0.045062 	0.000922
-89.925000	0.002130	-2.997500	2.999630	0.045066 	0.000922
-89.900000	0.002144	-2.996667	2.998811	0.045069 	0.000922
-89.875000	0.002157	-2.995833	2.997990	0.045072 	0.000922
-89.850000	0.002170	-2.995000	2.997170	0.045076 	0.000923
-89.825000	0.002184	-2.994167	2.996351	0.045079 	0.000923
-89.800000	0.002197	-2.993333	2.995530	0.045082 	0.000923
-89.775000	0.002210	-2.992500	2.994710	0.045085 	0.000923
-89.750000	0.002224	-2.991667	2.993891	0.045089 	0.000923
-89.725000	0.002237	-2.990833	2.993070	0.045092 	0.000923
-89.700000	0.002250	-2.990000	2.992250	0.045095 	0.000923
-89.675000	0.002264	-2.989167	2.991431	0.045098 	0.000923
-89.650000	0.002277	-2.988333	2.990610	0.045100 	0.000924
-89.625000	0.002291	-2.987500	2.989791	0.045103 	0.000924
-89.600000	0.002304	-2.986667	2.988971	0.045106 	0.000924
-89.575000	0.002317	-2.985833	2.988150	0.045109 	0.000924
-89.550000	0.002331	-2.985000	2.987331	0.045111 	0.000924
-89.525000	0.002344	-2.984167	2.986511	0.045114 	0.000924
-89.500000	0.002357	-2.983333	2.985690	0.045116 	0.000924
-89.475000	0.002371	-2.982500	2.984871	0.045119 	0.000924
-89.450000	0.002384	-2.981667	2.984051	0.045121 	0.000925
-89.425000	0.002397	-2.980833	2.983230	0.045124 	0.000925
-89.400000	0.002411	-2.980000	2.982411	0.045126 	0.000925
-89.375000	0.002424	-2.979167	2.981591	0.045128 	0.000925
-89.350000	0.002437	-2.978333	2.980770	0.045130 	0.000925
-89.325000	0.002451	-2.977500	2.979951	0.045132 	0.000925
-89.300000	0.002464	-2.976667	2.979131	0.045135 	0.000925
-89.275000	0.002477	-2.975833	2.978310	0.045137 	0.000925
-89.250000	0.002491	-2.975000	2.977491	0.045138 	0.000926
-89.225000	0.002504	-2.974167	2.976671	0.045140 	0.000926
-89.200000	0.002518	-2.973333	2.975851	0.045142 	0.000926
-89.175000	0.002531	-2.972500	2.975031	0.045144 	0.000926
-89.150000	0.002544	-2.971667	2.974211	0.045146 	0.000926
-89.125000	0.002558	-2.970833	2.973391	0.045147 	0.000926
-89.100000	0.002571	-2.970000	2.972571	0.045149 	0.000926
-89.075000	0.002584	-2.969167	2.971751	0.045150 	0.000927
-89.050000	0.002598	-2.968333	2.970931	0.045152 	0.000927
-89.025000	0.002611	-2.967500	2.970111	0.045153 	0.000927
-89.000000	0.002624	-2.966667	2.969291	0.045155 	0.000927
-88.975000	0.002638	-2.965833	2.968471	0.045156 	0.000927
-88.950000	0.002651	-2.965000	2.967651	0.045157 	0.000927
-88.925000	0.002665	-2.964167	2.966832	0.045158 	0.000927
-88.900000	0.002678	-2.963333	2.966011	0.045160 	0.000927
-88.875000	0.002691	-2.962500	2.965191	0.045161 	0.000928
-88.850000	0.002705	-2.961667	2.964372	0.045162 	0.000928
-88.825000	0.002718	-2.960833	2.963551	0.045162 	0.000928
-88.800000	0.002731	-2.960000	2.962731	0.045163 	0.000928
-88.775000	0.002745	-2.959167	2.961912	0.045164 	0.000928
-88.750000	0.002758	-2.958333	2.961091	0.045165 	0.000928
-88.725000	0.002772	-2.957500	2.960272	0.045166 	0.000928
-88.700000	0.002785	-2.956667	2.959452	0.045166 	0.000928
-88.675000	0.002798	-2.955833	2.958631	0.045167 	0.000929
-88.650000	0.002812	-2.955000	2.957812	0.045167 	0.000929
-88.625000	0.002825	-2.954167	2.956992	0.045168 	0.000929
-88.600000	0.002838	-2.953333	2.956171	0.045168 	0.000929
-88.575000	0.002852	-2.952500	2.955352	0.045169 	0.000929
-88.550000	0.002865	-2.951667	2.954532	0.045169 	0.000929
-88.525000	0.002878	-2.950833	2.953711	0.045169 	0.000929
-88.500000	0.002892	-2.950000	2.952892	0.045169 	0.000929
-88.475000	0.002905	-2.949167	2.952072	0.045169 	0.000930
-88.450000	0.002919	-2.948333	2.951252	0.045169 	0.000930
-88.425000	0.002932	-2.947500	2.950432	0.045169 	0.000930
-88.400000	0.002945	-2.946667	2.949612	0.045169 	0.000930
-88.375000	0.002959	-2.945833	2.948792	0.045169 	0.000930
-88.350000	0.002972	-2.945000	2.947972	0.045169 	0.000930
-88.325000	0.002985	-2.944167	2.947152	0.045169 	0.000930
-88.300000	0.002999	-2.943333	2.946332	0.045168 	0.000930
-88.275000	0.003012	-2.942500	2.945512	0.045168 	0.000931
-88.250000	0.003025	-2.941667	2.944692	0.045167 	0.000931
-88.225000	0.003039	-2.940833	2.943872	0.045167 	0.000931
-88.200000	0.003052	-2.940000	2.943052	0.045166 	0.000931
-88.175000	0.003066	-2.939167	2.942233	0.045166 	0.000931
-88.150000	0.003079	-2.938333	2.941412	0.045165 	0.000931
-88.125000	0.003092	-2.937500	2.940592	0.045164 	0.000931
-88.100000	0.003106	-2.936667	2.939773	0.045164 	0.000932
-88.075000	0.003119	-2.935833	2.938952	0.045163 	0.000932
-88.050000	0.003132	-2.935000	2.938132	0.045162 	0.000932
-88.025000	0.003146	-2.934167	2.937313	0.045161 	0.000932
-88.000000	0.003159	-2.933333	2.936492	0.045160 	0.000932
-87.975000	0.003173	-2.932500	2.935673	0.045159 	0.000932
-87.950000	0.003186	-2.931667	2.934853	0.045157 	0.000932
-87.925000	0.003199	-2.930833	2.934032	0.045156 	0.000932
-87.900000	0.003213	-2.930000	2.933213	0.045155 	0.000933
-87.875000	0.003226	-2.929167	2.932393	0.045153 	0.000933
-87.850000	0.003239	-2.928333	2.931572	0.045152 	0.000933
-87.825000	0.003253	-2.927500	2.930753	0.045151 	0.000933
-87.800000	0.003266	-2.926667	2.929933	0.045149 	0.000933
-87.775000	0.003279	-2.925833	2.929112	0.045147 	0.000933
-87.750000	0.003293	-2.925000	2.928293	0.045146 	0.000933
-87.725000	0.003306	-2.924167	2.927473	0.045144 	0.000933
-87.700000	0.003319	-2.923333	2.926652	0.045142 	0.000934
-87.675000	0.003333	-2.922500	2.925833	0.045140 	0.000934
-87.650000	0.003346	-2.921667	2.925013	0.045138 	0.000934
-87.625000	0.003359	-2.920833	2.924192	0.045136 	0.000934
-87.600000	0.003373	-2.920000	2.923373	0.045134 	0.000934
-87.575000	0.003386	-2.919167	2.922553	0.045132 	0.000934
-87.550000	0.003400	-2.918333	2.921733	0.045130 	0.000934
-87.525000	0.003413	-2.917500	2.920913	0.045128 	0.000935
-87.500000	0.003426	-2.916667	2.920093	0.045126 	0.000935
-87.475000	0.003440	-2.915833	2.919273	0.045123 	0.000935
-87.450000	0.003453	-2.915000	2.918453	0.045121 	0.000935
-87.425000	0.003466	-2.914167	2.917633	0.045118 	0.000935
-87.400000	0.003480	-2.913333	2.916813	0.045116 	0.000935
-87.375000	0.003493	-2.912500	2.915993	0.045113 	0.000935
-87.350000	0.003506	-2.911667	2.915173	0.045110 	0.000935
-87.325000	0.003520	-2.910833	2.914353	0.045108 	0.000936
-87.300000	0.003533	-2.910000	2.913533	0.045105 	0.000936
-87.275000	0.003546	-2.909167	2.912713	0.045102 	0.000936
-87.250000	0.003560	-2.908333	2.911893	0.045099 	0.000936