VARIABLES = X,Ksi,B,H,U,tau 
ZONE T="Time 50.000000", I=4400, DATAPACKING=POINT
-100.000000	-0.007998	-3.333333	3.325335	-0.006918 	0.000876
-99.975000	-0.005663	-3.332500	3.326837	-0.010887 	0.000876
-99.950000	-0.006624	-3.331667	3.325043	-0.009196 	0.000876
-99.925000	-0.006174	-3.330833	3.324659	-0.009927 	0.000876
-99.900000	-0.006328	-3.330000	3.323672	-0.009622 	0.000876
-99.875000	-0.006224	-3.329167	3.322943	-0.009760 	0.000876
-99.850000	-0.006230	-3.328333	3.322103	-0.009709 	0.000876
-99.825000	-0.006189	-3.327500	3.321311	-0.009738 	0.000876
-99.800000	-0.006168	-3.326667	3.320499	-0.009733 	0.000877
-99.775000	-0.006138	-3.325833	3.319695	-0.009743 	0.000877
-99.750000	-0.006112	-3.325000	3.318888	-0.009746 	0.000877
-99.725000	-0.006085	-3.324167	3.318082	-0.009752 	0.000877
-99.700000	-0.006058	-3.323333	3.317275	-0.009757 	0.000877
-99.675000	-0.006031	-3.322500	3.316469	-0.009762 	0.000877
-99.650000	-0.006004	-3.321667	3.315663	-0.009768 	0.000877
-99.625000	-0.005977	-3.320833	3.314856	-0.009773 	0.000877
-99.600000	-0.005949	-3.320000	3.314051	-0.009778 	0.000877
-99.575000	-0.005922	-3.319167	3.313245	-0.009783 	0.000877
-99.550000	-0.005895	-3.318333	3.312438	-0.009788 	0.000878
-99.525000	-0.005868	-3.317500	3.311632	-0.009794 	0.000878
-99.500000	-0.005841	-3.316667	3.310826	-0.009799 	0.000878
-99.475000	-0.005814	-3.315833	3.310019	-0.009804 	0.000878
-99.450000	-0.005787	-3.315000	3.309213	-0.009809 	0.000878
-99.425000	-0.005759	-3.314167	3.308408	-0.009814 	0.000878
-99.400000	-0.005732	-3.313333	3.307601	-0.009819 	0.000878
-99.375000	-0.005705	-3.312500	3.306795	-0.009824 	0.000878
-99.350000	-0.005678	-3.311667	3.305989	-0.009829 	0.000878
-99.325000	-0.005650	-3.310833	3.305183	-0.009834 	0.000879
-99.300000	-0.005623	-3.310000	3.304377	-0.009839 	0.000879
-99.275000	-0.005596	-3.309167	3.303571	-0.009844 	0.000879
-99.250000	-0.005569	-3.308333	3.302764	-0.009849 	0.000879
-99.225000	-0.005541	-3.307500	3.301959	-0.009854 	0.000879
-99.200000	-0.005514	-3.306667	3.301153	-0.009859 	0.000879
-99.175000	-0.005487	-3.305833	3.300346	-0.009864 	0.000879
-99.150000	-0.005459	-3.305000	3.299541	-0.009869 	0.000879
-99.125000	-0.005432	-3.304167	3.298735	-0.009874 	0.000879
-99.100000	-0.005405	-3.303333	3.297928	-0.009879 	0.000880
-99.075000	-0.005377	-3.302500	3.297123	-0.009884 	0.000880
-99.050000	-0.005350	-3.301667	3.296317	-0.009889 	0.000880
-99.025000	-0.005322	-3.300833	3.295511	-0.009894 	0.000880
-99.000000	-0.005295	-3.300000	3.294705	-0.009899 	0.000880
-98.975000	-0.005268	-3.299167	3.293899	-0.009904 	0.000880
-98.950000	-0.005240	-3.298333	3.293093	-0.009909 	0.000880
-98.925000	-0.005213	-3.297500	3.292287	-0.009914 	0.000880
-98.900000	-0.005185	-3.296667	3.291482	-0.009919 	0.000880
-98.875000	-0.005158	-3.295833	3.290675	-0.009924 	0.000880
-98.850000	-0.005130	-3.295000	3.289870	-0.009928 	0.000881
-98.825000	-0.005103	-3.294167	3.289064	-0.009933 	0.000881
-98.800000	-0.005075	-3.293333	3.288258	-0.009938 	0.000881
-98.775000	-0.005048	-3.292500	3.287452	-0.009943 	0.000881
-98.750000	-0.005020	-3.291667	3.286647	-0.009948 	0.000881
-98.725000	-0.004993	-3.290833	3.285840	-0.009952 	0.000881
-98.700000	-0.004965	-3.290000	3.285035	-0.009957 	0.000881
-98.675000	-0.004938	-3.289167	3.284229	-0.009962 	0.000881
-98.650000	-0.004910	-3.288333	3.283423	-0.009967 	0.000881
-98.625000	-0.004882	-3.287500	3.282618	-0.009971 	0.000882
-98.600000	-0.004855	-3.286667	3.281812	-0.009976 	0.000882
-98.575000	-0.004827	-3.285833	3.281006	-0.009981 	0.000882
-98.550000	-0.004800	-3.285000	3.280200	-0.009986 	0.000882
-98.525000	-0.004772	-3.284167	3.279395	-0.009990 	0.000882
-98.500000	-0.004744	-3.283333	3.278589	-0.009995 	0.000882
-98.475000	-0.004717	-3.282500	3.277783	-0.010000 	0.000882
-98.450000	-0.004689	-3.281667	3.276978	-0.010004 	0.000882
-98.425000	-0.004661	-3.280833	3.276172	-0.010009 	0.000882
-98.400000	-0.004634	-3.280000	3.275366	-0.010014 	0.000883
-98.375000	-0.004606	-3.279167	3.274561	-0.010018 	0.000883
-98.350000	-0.004578	-3.278333	3.273755	-0.010023 	0.000883
-98.325000	-0.004550	-3.277500	3.272950	-0.010027 	0.000883
-98.300000	-0.004523	-3.276667	3.272144	-0.010032 	0.000883
-98.275000	-0.004495	-3.275833	3.271338	-0.010037 	0.000883
-98.250000	-0.004467	-3.275000	3.270533	-0.010041 	0.000883
-98.225000	-0.004439	-3.274167	3.269728	-0.010046 	0.000883
-98.200000	-0.004412	-3.273333	3.268921	-0.010050 	0.000883
-98.175000	-0.004384	-3.272500	3.268116	-0.010055 	0.000884
-98.150000	-0.004356	-3.271667	3.267311	-0.010059 	0.000884
-98.125000	-0.004328	-3.270833	3.266505	-0.010064 	0.000884
-98.100000	-0.004300	-3.270000	3.265700	-0.010068 	0.000884
-98.075000	-0.004272	-3.269167	3.264895	-0.010073 	0.000884
-98.050000	-0.004245	-3.268333	3.264088	-0.010077 	0.000884
-98.025000	-0.004217	-3.267500	3.263283	-0.010082 	0.000884
-98.000000	-0.004189	-3.266667	3.262478	-0.010086 	0.000884
-97.975000	-0.004161	-3.265833	3.261672	-0.010091 	0.000884
-97.950000	-0.004133	-3.265000	3.260867	-0.010095 	0.000884
-97.925000	-0.004105	-3.264167	3.260062	-0.010099 	0.000885
-97.900000	-0.004077	-3.263333	3.259256	-0.010104 	0.000885
-97.875000	-0.004049	-3.262500	3.258451	-0.010108 	0.000885
-97.850000	-0.004021	-3.261667	3.257646	-0.010113 	0.000885
-97.825000	-0.003993	-3.260833	3.256840	-0.010117 	0.000885
-97.800000	-0.003966	-3.260000	3.256034	-0.010121 	0.000885
-97.775000	-0.003938	-3.259167	3.255229	-0.010126 	0.000885
-97.750000	-0.003910	-3.258333	3.254423	-0.010130 	0.000885
-97.725000	-0.003882	-3.257500	3.253618	-0.010134 	0.000885
-97.700000	-0.003854	-3.256667	3.252813	-0.010139 	0.000886
-97.675000	-0.003826	-3.255833	3.252007	-0.010143 	0.000886
-97.650000	-0.003798	-3.255000	3.251202	-0.010147 	0.000886
-97.625000	-0.003769	-3.254167	3.250398	-0.010152 	0.000886
-97.600000	-0.003741	-3.253333	3.249592	-0.010156 	0.000886
-97.575000	-0.003713	-3.252500	3.248787	-0.010160 	0.000886
-97.550000	-0.003685	-3.251667	3.247982	-0.010164 	0.000886
-97.525000	-0.003657	-3.250833	3.247176	-0.010169 	0.000886
-97.500000	-0.003629	-3.250000	3.246371	-0.010173 	0.000886
-97.475000	-0.003601	-3.249167	3.245566	-0.010177 	0.000887
-97.450000	-0.003573	-3.248333	3.244760	-0.010181 	0.000887
-97.425000	-0.003545	-3.247500	3.243955	-0.010185 	0.000887
-97.400000	-0.003517	-3.246667	3.243150	-0.010190 	0.000887
-97.375000	-0.003489	-3.245833	3.242344	-0.010194 	0.000887
-97.350000	-0.003460	-3.245000	3.241540	-0.010198 	0.000887
-97.325000	-0.003432	-3.244167	3.240735	-0.010202 	0.000887
-97.300000	-0.003404	-3.243333	3.239929	-0.010206 	0.000887
-97.275000	-0.003376	-3.242500	3.239124	-0.010210 	0.000887
-97.250000	-0.003348	-3.241667	3.238319	-0.010214 	0.000888
-97.225000	-0.003319	-3.240833	3.237514	-0.010218 	0.000888
-97.200000	-0.003291	-3.240000	3.236709	-0.010222 	0.000888
-97.175000	-0.003263	-3.239167	3.235904	-0.010227 	0.000888
-97.150000	-0.003235	-3.238333	3.235098	-0.010231 	0.000888
-97.125000	-0.003207	-3.237500	3.234293	-0.010235 	0.000888
-97.100000	-0.003178	-3.236667	3.233489	-0.010239 	0.000888
-97.075000	-0.003150	-3.235833	3.232683	-0.010243 	0.000888
-97.050000	-0.003122	-3.235000	3.231878	-0.010247 	0.000888
-97.025000	-0.003093	-3.234167	3.231074	-0.010251 	0.000889
-97.000000	-0.003065	-3.233333	3.230268	-0.010255 	0.000889
-96.975000	-0.003037	-3.232500	3.229463	-0.010259 	0.000889
-96.950000	-0.003009	-3.231667	3.228658	-0.010263 	0.000889
-96.925000	-0.002980	-3.230833	3.227853	-0.010267 	0.000889
-96.900000	-0.002952	-3.230000	3.227048	-0.010271 	0.000889
-96.875000	-0.002924	-3.229167	3.226243	-0.010274 	0.000889
-96.850000	-0.002895	-3.228333	3.225438	-0.010278 	0.000889
-96.825000	-0.002867	-3.227500	3.224633	-0.010282 	0.000889
-96.800000	-0.002838	-3.226667	3.223829	-0.010286 	0.000890
-96.775000	-0.002810	-3.225833	3.223023	-0.010290 	0.000890
-96.750000	-0.002782	-3.225000	3.222218	-0.010294 	0.000890
-96.725000	-0.002753	-3.224167	3.221414	-0.010298 	0.000890
-96.700000	-0.002725	-3.223333	3.220608	-0.010302 	0.000890
-96.675000	-0.002696	-3.222500	3.219804	-0.010305 	0.000890
-96.650000	-0.002668	-3.221667	3.218999	-0.010309 	0.000890
-96.625000	-0.002639	-3.220833	3.218194	-0.010313 	0.000890
-96.600000	-0.002611	-3.220000	3.217389	-0.010317 	0.000890
-96.575000	-0.002583	-3.219167	3.216584	-0.010321 	0.000891
-96.550000	-0.002554	-3.218333	3.215779	-0.010324 	0.000891
-96.525000	-0.002526	-3.217500	3.214974	-0.010328 	0.000891
-96.500000	-0.002497	-3.216667	3.214170	-0.010332 	0.000891
-96.475000	-0.002469	-3.215833	3.213364	-0.010336 	0.000891
-96.450000	-0.002440	-3.215000	3.212560	-0.010339 	0.000891
-96.425000	-0.002412	-3.214167	3.211755	-0.010343 	0.000891
-96.400000	-0.002383	-3.213333	3.210950	-0.010347 	0.000891
-96.375000	-0.002354	-3.212500	3.210146	-0.010350 	0.000891
-96.350000	-0.002326	-3.211667	3.209341	-0.010354 	0.000892
-96.325000	-0.002297	-3.210833	3.208536	-0.010358 	0.000892
-96.300000	-0.002269	-3.210000	3.207731	-0.010361 	0.000892
-96.275000	-0.002240	-3.209167	3.206927	-0.010365 	0.000892
-96.250000	-0.002212	-3.208333	3.206121	-0.010369 	0.000892
-96.225000	-0.002183	-3.207500	3.205317	-0.010372 	0.000892
-96.200000	-0.002154	-3.206667	3.204513	-0.010376 	0.000892
-96.175000	-0.002126	-3.205833	3.203707	-0.010380 	0.000892
-96.150000	-0.002097	-3.205000	3.202903	-0.010383 	0.000892
-96.125000	-0.002068	-3.204167	3.202099	-0.010387 	0.000893
-96.100000	-0.002040	-3.203333	3.201293	-0.010390 	0.000893
-96.075000	-0.002011	-3.202500	3.200489	-0.010394 	0.000893
-96.050000	-0.001983	-3.201667	3.199684	-0.010397 	0.000893
-96.025000	-0.001954	-3.200833	3.198879	-0.010401 	0.000893
-96.000000	-0.001925	-3.200000	3.198075	-0.010404 	0.000893
-95.975000	-0.001896	-3.199167	3.197271	-0.010408 	0.000893
-95.950000	-0.001868	-3.198333	3.196465	-0.010411 	0.000893
-95.925000	-0.001839	-3.197500	3.195661	-0.010415 	0.000893
-95.900000	-0.001810	-3.196667	3.194857	-0.010418 	0.000894
-95.875000	-0.001782	-3.195833	3.194051	-0.010422 	0.000894
-95.850000	-0.001753	-3.195000	3.193247	-0.010425 	0.000894
-95.825000	-0.001724	-3.194167	3.192443	-0.010429 	0.000894
-95.800000	-0.001695	-3.193333	3.191638	-0.010432 	0.000894
-95.775000	-0.001667	-3.192500	3.190833	-0.010435 	0.000894
-95.750000	-0.001638	-3.191667	3.190029	-0.010439 	0.000894
-95.725000	-0.001609	-3.190833	3.189224	-0.010442 	0.000894
-95.700000	-0.001580	-3.190000	3.188420	-0.010445 	0.000894
-95.675000	-0.001551	-3.189167	3.187616	-0.010449 	0.000895
-95.650000	-0.001523	-3.188333	3.186810	-0.010452 	0.000895
-95.625000	-0.001494	-3.187500	3.186006	-0.010455 	0.000895
-95.600000	-0.001465	-3.186667	3.185202	-0.010459 	0.000895
-95.575000	-0.001436	-3.185833	3.184397	-0.010462 	0.000895
-95.550000	-0.001407	-3.185000	3.183593	-0.010465 	0.000895
-95.525000	-0.001378	-3.184167	3.182789	-0.010468 	0.000895
-95.500000	-0.001349	-3.183333	3.181984	-0.010472 	0.000895
-95.475000	-0.001321	-3.182500	3.181179	-0.010475 	0.000895
-95.450000	-0.001292	-3.181667	3.180375	-0.010478 	0.000896
-95.425000	-0.001263	-3.180833	3.179570	-0.010481 	0.000896
-95.400000	-0.001234	-3.180000	3.178766	-0.010484 	0.000896
-95.375000	-0.001205	-3.179167	3.177962	-0.010488 	0.000896
-95.350000	-0.001176	-3.178333	3.177157	-0.010491 	0.000896
-95.325000	-0.001147	-3.177500	3.176353	-0.010494 	0.000896
-95.300000	-0.001118	-3.176667	3.175549	-0.010497 	0.000896
-95.275000	-0.001089	-3.175833	3.174744	-0.010500 	0.000896
-95.250000	-0.001060	-3.175000	3.173940	-0.010503 	0.000897
-95.225000	-0.001031	-3.174167	3.173136	-0.010507 	0.000897
-95.200000	-0.001002	-3.173333	3.172331	-0.010510 	0.000897
-95.175000	-0.000973	-3.172500	3.171527	-0.010513 	0.000897
-95.150000	-0.000945	-3.171667	3.170722	-0.010516 	0.000897
-95.125000	-0.000916	-3.170833	3.169917	-0.010519 	0.000897
-95.100000	-0.000887	-3.170000	3.169113	-0.010522 	0.000897
-95.075000	-0.000858	-3.169167	3.168309	-0.010525 	0.000897
-95.050000	-0.000829	-3.168333	3.167504	-0.010528 	0.000897
-95.025000	-0.000800	-3.167500	3.166700	-0.010531 	0.000898
-95.000000	-0.000771	-3.166667	3.165896	-0.010534 	0.000898
-94.975000	-0.000742	-3.165833	3.165091	-0.010537 	0.000898
-94.950000	-0.000713	-3.165000	3.164287	-0.010540 	0.000898
-94.925000	-0.000684	-3.164167	3.163483	-0.010543 	0.000898
-94.900000	-0.000655	-3.163333	3.162678	-0.010546 	0.000898
-94.875000	-0.000625	-3.162500	3.161875	-0.010549 	0.000898
-94.850000	-0.000596	-3.161667	3.161071	-0.010552 	0.000898
-94.825000	-0.000567	-3.160833	3.160266	-0.010555 	0.000898
-94.800000	-0.000538	-3.160000	3.159462	-0.010558 	0.000899
-94.775000	-0.000509	-3.159167	3.158658	-0.010561 	0.000899
-94.750000	-0.000480	-3.158333	3.157853	-0.010564 	0.000899
-94.725000	-0.000451	-3.157500	3.157049	-0.010567 	0.000899
-94.700000	-0.000422	-3.156667	3.156245	-0.010570 	0.000899
-94.675000	-0.000393	-3.155833	3.155440	-0.010572 	0.000899
-94.650000	-0.000364	-3.155000	3.154636	-0.010575 	0.000899
-94.625000	-0.000334	-3.154167	3.153833	-0.010578 	0.000899
-94.600000	-0.000305	-3.153333	3.153028	-0.010581 	0.000899
-94.575000	-0.000276	-3.152500	3.152224	-0.010584 	0.000900
-94.550000	-0.000247	-3.151667	3.151420	-0.010586 	0.000900
-94.525000	-0.000218	-3.150833	3.150615	-0.010589 	0.000900
-94.500000	-0.000189	-3.150000	3.149811	-0.010592 	0.000900
-94.475000	-0.000160	-3.149167	3.149007	-0.010595 	0.000900
-94.450000	-0.000130	-3.148333	3.148203	-0.010597 	0.000900
-94.425000	-0.000101	-3.147500	3.147399	-0.010600 	0.000900
-94.400000	-0.000072	-3.146667	3.146595	-0.010603 	0.000900
-94.375000	-0.000043	-3.145833	3.145790	-0.010605 	0.000901
-94.350000	-0.000014	-3.145000	3.144986	-0.010608 	0.000901
-94.325000	0.000016	-3.144167	3.144183	-0.010611 	0.000901
-94.300000	0.000045	-3.143333	3.143378	-0.010613 	0.000901
-94.275000	0.000074	-3.142500	3.142574	-0.010616 	0.000901
-94.250000	0.000103	-3.141667	3.141770	-0.010619 	0.000901
-94.225000	0.000133	-3.140833	3.140966	-0.010621 	0.000901
-94.200000	0.000162	-3.140000	3.140162	-0.010624 	0.000901
-94.175000	0.000191	-3.139167	3.139358	-0.010626 	0.000901
-94.150000	0.000220	-3.138333	3.138553	-0.010629 	0.000902
-94.125000	0.000250	-3.137500	3.137750	-0.010632 	0.000902
-94.100000	0.000279	-3.136667	3.136946	-0.010634 	0.000902
-94.075000	0.000308	-3.135833	3.136141	-0.010637 	0.000902
-94.050000	0.000338	-3.135000	3.135338	-0.010639 	0.000902
-94.025000	0.000367	-3.134167	3.134534	-0.010642 	0.000902
-94.000000	0.000396	-3.133333	3.133729	-0.010644 	0.000902
-93.975000	0.000425	-3.132500	3.132925	-0.010647 	0.000902
-93.950000	0.000455	-3.131667	3.132122	-0.010649 	0.000902
-93.925000	0.000484	-3.130833	3.131317	-0.010652 	0.000903
-93.900000	0.000513	-3.130000	3.130513	-0.010654 	0.000903
-93.875000	0.000543	-3.129167	3.129710	-0.010656 	0.000903
-93.850000	0.000572	-3.128333	3.128905	-0.010659 	0.000903
-93.825000	0.000601	-3.127500	3.128101	-0.010661 	0.000903
-93.800000	0.000631	-3.126667	3.127298	-0.010664 	0.000903
-93.775000	0.000660	-3.125833	3.126493	-0.010666 	0.000903
-93.750000	0.000689	-3.125000	3.125689	-0.010668 	0.000903
-93.725000	0.000719	-3.124167	3.124886	-0.010671 	0.000904
-93.700000	0.000748	-3.123333	3.124081	-0.010673 	0.000904
-93.675000	0.000778	-3.122500	3.123278	-0.010675 	0.000904
-93.650000	0.000807	-3.121667	3.122474	-0.010677 	0.000904
-93.625000	0.000836	-3.120833	3.121669	-0.010680 	0.000904
-93.600000	0.000866	-3.120000	3.120866	-0.010682 	0.000904
-93.575000	0.000895	-3.119167	3.120062	-0.010684 	0.000904
-93.550000	0.000925	-3.118333	3.119258	-0.010686 	0.000904
-93.525000	0.000954	-3.117500	3.118454	-0.010689 	0.000904
-93.500000	0.000984	-3.116667	3.117651	-0.010691 	0.000905
-93.475000	0.001013	-3.115833	3.116846	-0.010693 	0.000905
-93.450000	0.001042	-3.115000	3.116042	-0.010695 	0.000905
-93.425000	0.001072	-3.114167	3.115239	-0.010697 	0.000905
-93.400000	0.001101	-3.113333	3.114434	-0.010700 	0.000905
-93.375000	0.001131	-3.112500	3.113631	-0.010702 	0.000905
-93.350000	0.001160	-3.111667	3.112827	-0.010704 	0.000905
-93.325000	0.001190	-3.110833	3.112023	-0.010706 	0.000905
-93.300000	0.001219	-3.110000	3.111219	-0.010708 	0.000906
-93.275000	0.001249	-3.109167	3.110416	-0.010710 	0.000906
-93.250000	0.001278	-3.108333	3.109611	-0.010712 	0.000906
-93.225000	0.001308	-3.107500	3.108808	-0.010714 	0.000906
-93.200000	0.001337	-3.106667	3.108004	-0.010716 	0.000906
-93.175000	0.001367	-3.105833	3.107200	-0.010718 	0.000906
-93.150000	0.001396	-3.105000	3.106396	-0.010720 	0.000906
-93.125000	0.001426	-3.104167	3.105593	-0.010722 	0.000906
-93.100000	0.001455	-3.103333	3.104788	-0.010724 	0.000906
-93.075000	0.001485	-3.102500	3.103985	-0.010726 	0.000907
-93.050000	0.001514	-3.101667	3.103181	-0.010728 	0.000907
-93.025000	0.001544	-3.100833	3.102377	-0.010730 	0.000907
-93.000000	0.001573	-3.100000	3.101573	-0.010732 	0.000907
-92.975000	0.001603	-3.099167	3.100770	-0.010734 	0.000907
-92.950000	0.001632	-3.098333	3.099965	-0.010736 	0.000907
-92.925000	0.001662	-3.097500	3.099162	-0.010738 	0.000907
-92.900000	0.001691	-3.096667	3.098358	-0.010740 	0.000907
-92.875000	0.001721	-3.095833	3.097554	-0.010742 	0.000908
-92.850000	0.001750	-3.095000	3.096750	-0.010743 	0.000908
-92.825000	0.001780	-3.094167	3.095947	-0.010745 	0.000908
-92.800000	0.001810	-3.093333	3.095143	-0.010747 	0.000908
-92.775000	0.001839	-3.092500	3.094339	-0.010749 	0.000908
-92.750000	0.001869	-3.091667	3.093536	-0.010751 	0.000908
-92.725000	0.001898	-3.090833	3.092731	-0.010752 	0.000908
-92.700000	0.001928	-3.090000	3.091928	-0.010754 	0.000908
-92.675000	0.001958	-3.089167	3.091125	-0.010756 	0.000908
-92.650000	0.001987	-3.088333	3.090320	-0.010758 	0.000909
-92.625000	0.002017	-3.087500	3.089517	-0.010759 	0.000909
-92.600000	0.002046	-3.086667	3.088713	-0.010761 	0.000909
-92.575000	0.002076	-3.085833	3.087909	-0.010763 	0.000909
-92.550000	0.002106	-3.085000	3.087106	-0.010764 	0.000909
-92.525000	0.002135	-3.084167	3.086302	-0.010766 	0.000909
-92.500000	0.002165	-3.083333	3.085498	-0.010768 	0.000909
-92.475000	0.002195	-3.082500	3.084695	-0.010769 	0.000909
-92.450000	0.002224	-3.081667	3.083891	-0.010771 	0.000910
-92.425000	0.002254	-3.080833	3.083087	-0.010772 	0.000910
-92.400000	0.002283	-3.080000	3.082283	-0.010774 	0.000910
-92.375000	0.002313	-3.079167	3.081480	-0.010776 	0.000910
-92.350000	0.002343	-3.078333	3.080676	-0.010777 	0.000910
-92.325000	0.002372	-3.077500	3.079872	-0.010779 	0.000910
-92.300000	0.002402	-3.076667	3.079069	-0.010780 	0.000910
-92.275000	0.002432	-3.075833	3.078265	-0.010782 	0.000910
-92.250000	0.002461	-3.075000	3.077461	-0.010783 	0.000910
-92.225000	0.002491	-3.074167	3.076658	-0.010785 	0.000911
-92.200000	0.002521	-3.073333	3.075854	-0.010786 	0.000911
-92.175000	0.002550	-3.072500	3.075050	-0.010788 	0.000911
-92.150000	0.002580	-3.071667	3.074247	-0.010789 	0.000911
-92.125000	0.002610	-3.070833	3.073443	-0.010791 	0.000911
-92.100000	0.002640	-3.070000	3.072640	-0.010792 	0.000911
-92.075000	0.002669	-3.069167	3.071836	-0.010793 	0.000911
-92.050000	0.002699	-3.068333	3.071032	-0.010795 	0.000911
-92.025000	0.002729	-3.067500	3.070229	-0.010796 	0.000912
-92.000000	0.002758	-3.066667	3.069425	-0.010797 	0.000912
-91.975000	0.002788	-3.065833	3.068621	-0.010799 	0.000912
-91.950000	0.002818	-3.065000	3.067818	-0.010800 	0.000912
-91.925000	0.002848	-3.064167	3.067015	-0.010801 	0.000912
-91.900000	0.002877	-3.063333	3.066210	-0.010803 	0.000912
-91.875000	0.002907	-3.062500	3.065407	-0.010804 	0.000912
-91.850000	0.002937	-3.061667	3.064604	-0.010805 	0.000912
-91.825000	0.002966	-3.060833	3.063799	-0.010807 	0.000912
-91.800000	0.002996	-3.060000	3.062996	-0.010808 	0.000913
-91.775000	0.003026	-3.059167	3.062193	-0.010809 	0.000913
-91.750000	0.003056	-3.058333	3.061389	-0.010810 	0.000913
-91.725000	0.003085	-3.057500	3.060585	-0.010811 	0.000913
-91.700000	0.003115	-3.056667	3.059782	-0.010813 	0.000913
-91.675000	0.003145	-3.055833	3.058978	-0.010814 	0.000913
-91.650000	0.003175	-3.055000	3.058175	-0.010815 	0.000913
-91.625000	0.003204	-3.054167	3.057371	-0.010816 	0.000913
-91.600000	0.003234	-3.053333	3.056567	-0.010817 	0.000914
-91.575000	0.003264	-3.052500	3.055764	-0.010818 	0.000914
-91.550000	0.003294	-3.051667	3.054961	-0.010819 	0.000914
-91.525000	0.003324	-3.050833	3.054157	-0.010820 	0.000914
-91.500000	0.003353	-3.050000	3.053353	-0.010822 	0.000914
-91.475000	0.003383	-3.049167	3.052550	-0.010823 	0.000914
-91.450000	0.003413	-3.048333	3.051746	-0.010824 	0.000914
-91.425000	0.003443	-3.047500	3.050943	-0.010825 	0.000914
-91.400000	0.003472	-3.046667	3.050139	-0.010826 	0.000915
-91.375000	0.003502	-3.045833	3.049335	-0.010827 	0.000915
-91.350000	0.003532	-3.045000	3.048532	-0.010828 	0.000915
-91.325000	0.003562	-3.044167	3.047729	-0.010829 	0.000915
-91.300000	0.003592	-3.043333	3.046925	-0.010830 	0.000915
-91.275000	0.003621	-3.042500	3.046121	-0.010831 	0.000915
-91.250000	0.003651	-3.041667	3.045318	-0.010832 	0.000915
-91.225000	0.003681	-3.040833	3.044514	-0.010833 	0.000915
-91.200000	0.003711	-3.040000	3.043711	-0.010834 	0.000915
-91.175000	0.003740	-3.039167	3.042907	-0.010834 	0.000916
-91.150000	0.003770	-3.038333	3.042103	-0.010835 	0.000916
-91.125000	0.003800	-3.037500	3.041300	-0.010836 	0.000916
-91.100000	0.003830	-3.036667	3.040497	-0.010837 	0.000916
-91.075000	0.003860	-3.035833	3.039693	-0.010838 	0.000916
-91.050000	0.003889	-3.035000	3.038889	-0.010839 	0.000916
-91.025000	0.003919	-3.034167	3.038086	-0.010840 	0.000916
-91.000000	0.003949	-3.033333	3.037282	-0.010841 	0.000916
-90.975000	0.003979	-3.032500	3.036479	-0.010841 	0.000917
-90.950000	0.004009	-3.031667	3.035676	-0.010842 	0.000917
-90.925000	0.004038	-3.030833	3.034871	-0.010843 	0.000917
-90.900000	0.004068	-3.030000	3.034068	-0.010844 	0.000917
-90.875000	0.004098	-3.029167	3.033265	-0.010845 	0.000917
-90.850000	0.004128	-3.028333	3.032461	-0.010845 	0.000917
-90.825000	0.004158	-3.027500	3.031658	-0.010846 	0.000917
-90.800000	0.004187	-3.026667	3.030854	-0.010847 	0.000917
-90.775000	0.004217	-3.025833	3.030050	-0.010847 	0.000918
-90.750000	0.004247	-3.025000	3.029247	-0.010848 	0.000918
-90.725000	0.004277	-3.024167	3.028444	-0.010849 	0.000918
-90.700000	0.004307	-3.023333	3.027640	-0.010849 	0.000918
-90.675000	0.004337	-3.022500	3.026837	-0.010850 	0.000918
-90.650000	0.004366	-3.021667	3.026033	-0.010851 	0.000918
-90.625000	0.004396	-3.020833	3.025229	-0.010851 	0.000918
-90.600000	0.004426	-3.020000	3.024426	-0.010852 	0.000918
-90.575000	0.004456	-3.019167	3.023623	-0.010852 	0.000919
-90.550000	0.004486	-3.018333	3.022819	-0.010853 	0.000919
-90.525000	0.004516	-3.017500	3.022016	-0.010853 	0.000919
-90.500000	0.004546	-3.016667	3.021213	-0.010854 	0.000919
-90.475000	0.004575	-3.015833	3.020408	-0.010854 	0.000919
-90.450000	0.004605	-3.015000	3.019605	-0.010855 	0.000919
-90.425000	0.004635	-3.014167	3.018802	-0.010855 	0.000919
-90.400000	0.004665	-3.013333	3.017998	-0.010856 	0.000919
-90.375000	0.004695	-3.012500	3.017195	-0.010856 	0.000920
-90.350000	0.004725	-3.011667	3.016392	-0.010857 	0.000920
-90.325000	0.004755	-3.010833	3.015588	-0.010857 	0.000920
-90.300000	0.004785	-3.010000	3.014785	-0.010857 	0.000920
-90.275000	0.004814	-3.009167	3.013981	-0.010858 	0.000920
-90.250000	0.004844	-3.008333	3.013177	-0.010858 	0.000920
-90.225000	0.004874	-3.007500	3.012374	-0.010858 	0.000920
-90.200000	0.004904	-3.006667	3.011571	-0.010859 	0.000920
-90.175000	0.004934	-3.005833	3.010767	-0.010859 	0.000920
-90.150000	0.004964	-3.005000	3.009964	-0.010859 	0.000921
-90.125000	0.004994	-3.004167	3.009161	-0.010859 	0.000921
-90.100000	0.005024	-3.003333	3.008357	-0.010860 	0.000921
-90.075000	0.005054	-3.002500	3.007554	-0.010860 	0.000921
-90.050000	0.005083	-3.001667	3.006750	-0.010860 	0.000921
-90.025000	0.005113	-3.000833	3.005946	-0.010860 	0.000921
-90.000000	0.005143	-3.000000	3.005143	-0.010861 	0.000921
-89.975000	0.005173	-2.999167	3.004340	-0.010861 	0.000921
-89.950000	0.005203	-2.998333	3.003536	-0.010861 	0.000922
-89.925000	0.005233	-2.997500	3.002733	-0.010861 	0.000922
-89.900000	0.005263	-2.996667	3.001930	-0.010861 	0.000922
-89.875000	0.005293	-2.995833	3.001126	-0.010861 	0.000922
-89.850000	0.005323	-2.995000	3.000323	-0.010861 	0.000922
-89.825000	0.005352	-2.994167	2.999519	-0.010862 	0.000922
-89.800000	0.005382	-2.993333	2.998715	-0.010862 	0.000922
-89.775000	0.005412	-2.992500	2.997912	-0.010862 	0.000922
-89.750000	0.005442	-2.991667	2.997109	-0.010862 	0.000923
-89.725000	0.005472	-2.990833	2.996305	-0.010862 	0.000923
-89.700000	0.005502	-2.990000	2.995502	-0.010862 	0.000923
-89.675000	0.005532	-2.989167	2.994699	-0.010862 	0.000923
-89.650000	0.005562	-2.988333	2.993895	-0.010862 	0.000923
-89.625000	0.005592	-2.987500	2.993092	-0.010862 	0.000923
-89.600000	0.005622	-2.986667	2.992289	-0.010862 	0.000923
-89.575000	0.005651	-2.985833	2.991484	-0.010862 	0.000923
-89.550000	0.005681	-2.985000	2.990681	-0.010862 	0.000924
-89.525000	0.005711	-2.984167	2.989878	-0.010861 	0.000924
-89.500000	0.005741	-2.983333	2.989074	-0.010861 	0.000924
-89.475000	0.005771	-2.982500	2.988271	-0.010861 	0.000924
-89.450000	0.005801	-2.981667	2.987468	-0.010861 	0.000924
-89.425000	0.005831	-2.980833	2.986664	-0.010861 	0.000924
-89.400000	0.005861	-2.980000	2.985861	-0.010861 	0.000924
-89.375000	0.005891	-2.979167	2.985058	-0.010861 	0.000924
-89.350000	0.005921	-2.978333	2.984254	-0.010860 	0.000925
-89.325000	0.005951	-2.977500	2.983451	-0.010860 	0.000925
-89.300000	0.005980	-2.976667	2.982647	-0.010860 	0.000925
-89.275000	0.006010	-2.975833	2.981843	-0.010860 	0.000925
-89.250000	0.006040	-2.975000	2.981040	-0.010859 	0.000925
-89.225000	0.006070	-2.974167	2.980237	-0.010859 	0.000925
-89.200000	0.006100	-2.973333	2.979433	-0.010859 	0.000925
-89.175000	0.006130	-2.972500	2.978630	-0.010858 	0.000925
-89.150000	0.006160	-2.971667	2.977827	-0.010858 	0.000926
-89.125000	0.006190	-2.970833	2.977023	-0.010858 	0.000926
-89.100000	0.006220	-2.970000	2.976220	-0.010857 	0.000926
-89.075000	0.006250	-2.969167	2.975417	-0.010857 	0.000926
-89.050000	0.006280	-2.968333	2.974613	-0.010857 	0.000926
-89.025000	0.006309	-2.967500	2.973809	-0.010856 	0.000926
-89.000000	0.006339	-2.966667	2.973006	-0.010856 	0.000926
-88.975000	0.006369	-2.965833	2.972202	-0.010855 	0.000926
-88.950000	0.006399	-2.965000	2.971399	-0.010855 	0.000927
-88.925000	0.006429	-2.964167	2.970596	-0.010854 	0.000927
-88.900000	0.006459	-2.963333	2.969792	-0.010854 	0.000927
-88.875000	0.006489	-2.962500	2.968989	-0.010853 	0.000927
-88.850000	0.006519	-2.961667	2.968186	-0.010853 	0.000927
-88.825000	0.006549	-2.960833	2.967382	-0.010852 	0.000927
-88.800000	0.006579	-2.960000	2.966579	-0.010852 	0.000927
-88.775000	0.006608	-2.959167	2.965775	-0.010851 	0.000927
-88.750000	0.006638	-2.958333	2.964971	-0.010851 	0.000928
-88.725000	0.006668	-2.957500	2.964168	-0.010850 	0.000928
-88.700000	0.006698	-2.956667	2.963365	-0.010849 	0.000928
-88.675000	0.006728	-2.955833	2.962561	-0.010849 	0.000928
-88.650000	0.006758	-2.955000	2.961758	-0.010848 	0.000928
-88.625000	0.006788	-2.954167	2.960955	-0.010848 	0.000928
-88.600000	0.006818	-2.953333	2.960151	-0.010847 	0.000928
-88.575000	0.006848	-2.952500	2.959348	-0.010846 	0.000928
-88.550000	0.006878	-2.951667	2.958545	-0.010845 	0.000929
-88.525000	0.006907	-2.950833	2.957740	-0.010845 	0.000929
-88.500000	0.006937	-2.950000	2.956937	-0.010844 	0.000929
-88.475000	0.006967	-2.949167	2.956134	-0.010843 	0.000929
-88.450000	0.006997	-2.948333	2.955330	-0.010842 	0.000929
-88.425000	0.007027	-2.947500	2.954527	-0.010842 	0.000929
-88.400000	0.007057	-2.946667	2.953724	-0.010841 	0.000929
-88.375000	0.007087	-2.945833	2.952920	-0.010840 	0.000929
-88.350000	0.007117	-2.945000	2.952117	-0.010839 	0.000930
-88.325000	0.007146	-2.944167	2.951313	-0.010838 	0.000930
-88.300000	0.007176	-2.943333	2.950509	-0.010837 	0.000930
-88.275000	0.007206	-2.942500	2.949706	-0.010837 	0.000930
-88.250000	0.007236	-2.941667	2.948903	-0.010836 	0.000930
-88.225000	0.007266	-2.940833	2.948099	-0.010835 	0.000930
-88.200000	0.007296	-2.940000	2.947296	-0.010834 	0.000930
-88.175000	0.007326	-2.939167	2.946493	-0.010833 	0.000930
-88.150000	0.007356	-2.938333	2.945689	-0.010832 	0.000931
-88.125000	0.007385	-2.937500	2.944885	-0.010831 	0.000931
-88.100000	0.007415	-2.936667	2.944082	-0.010830 	0.000931
-88.075000	0.007445	-2.935833	2.943278	-0.010829 	0.000931
-88.050000	0.007475	-2.935000	2.942475	-0.010828 	0.000931
-88.025000	0.007505	-2.934167	2.941672	-0.010827 	0.000931
-88.000000	0.007535	-2.933333	2.940868	-0.010826 	0.000931
-87.975000	0.007565	-2.932500	2.940065	-0.010825 	0.000931
-87.950000	0.007594	-2.931667	2.939261	-0.010824 	0.000932
-87.925000	0.007624	-2.930833	2.938457	-0.010823 	0.000932
-87.900000	0.007654	-2.930000	2.937654	-0.010821 	0.000932
-87.875000	0.007684	-2.929167	2.936851	-0.010820 	0.000932
-87.850000	0.007714	-2.928333	2.936047	-0.010819 	0.000932
-87.825000	0.007744	-2.927500	2.935244	-0.010818 	0.000932
-87.800000	0.007773	-2.926667	2.934440	-0.010817 	0.000932
-87.775000	0.007803	-2.925833	2.933636	-0.010815 	0.000933
-87.750000	0.007833	-2.925000	2.932833	-0.010814 	0.000933
-87.725000	0.007863	-2.924167	2.932030	-0.010813 	0.000933
-87.700000	0.007893	-2.923333	2.931226	-0.010812 	0.000933
-87.675000	0.007923	-2.922500	2.930423	-0.010810 	0.000933
-87.650000	0.007952	-2.921667	2.929619	-0.010809 	0.000933
-87.625000	0.007982	-2.920833	2.928815	-0.010808 	0.000933
-87.600000	0.008012	-2.920000	2.928012	-0.010807 	0.000933
-87.575000	0.008042	-2.919167	2.927209	-0.010805 	0.000934
-87.550000	0.008072	-2.918333	2.926405	-0.010804 	0.000934
-87.525000	0.008101	-2.917500	2.925601	-0.010802 	0.000934
-87.500000	0.008131	-2.916667	2.924798	-0.010801 	0.000934
-87.475000	0.008161	-2.915833	2.923994	-0.010800 	0.000934
-87.450000	0.008191	-2.915000	2.923191	-0.010798 	0.000934