VARIABLES = X,Ksi,B,H,U,tau 
ZONE T="Time 25.000000", I=4400, DATAPACKING=POINT
-100.000000	-0.006598	-3.333333	3.326735	-0.005097 	0.000876
-99.975000	-0.007291	-3.332500	3.325209	-0.003862 	0.000876
-99.950000	-0.006955	-3.331667	3.324712	-0.004394 	0.000876
-99.925000	-0.007060	-3.330833	3.323773	-0.004169 	0.000876
-99.900000	-0.006976	-3.330000	3.323024	-0.004269 	0.000876
-99.875000	-0.006973	-3.329167	3.322194	-0.004230 	0.000876
-99.850000	-0.006936	-3.328333	3.321397	-0.004250 	0.000876
-99.825000	-0.006913	-3.327500	3.320587	-0.004245 	0.000876
-99.800000	-0.006883	-3.326667	3.319784	-0.004250 	0.000877
-99.775000	-0.006857	-3.325833	3.318976	-0.004251 	0.000877
-99.750000	-0.006829	-3.325000	3.318171	-0.004254 	0.000877
-99.725000	-0.006802	-3.324167	3.317365	-0.004256 	0.000877
-99.700000	-0.006775	-3.323333	3.316558	-0.004259 	0.000877
-99.675000	-0.006747	-3.322500	3.315753	-0.004261 	0.000877
-99.650000	-0.006720	-3.321667	3.314947	-0.004263 	0.000877
-99.625000	-0.006693	-3.320833	3.314140	-0.004265 	0.000877
-99.600000	-0.006665	-3.320000	3.313335	-0.004268 	0.000877
-99.575000	-0.006638	-3.319167	3.312529	-0.004270 	0.000878
-99.550000	-0.006610	-3.318333	3.311723	-0.004272 	0.000878
-99.525000	-0.006583	-3.317500	3.310917	-0.004275 	0.000878
-99.500000	-0.006556	-3.316667	3.310111	-0.004277 	0.000878
-99.475000	-0.006528	-3.315833	3.309305	-0.004279 	0.000878
-99.450000	-0.006501	-3.315000	3.308499	-0.004281 	0.000878
-99.425000	-0.006473	-3.314167	3.307694	-0.004284 	0.000878
-99.400000	-0.006446	-3.313333	3.306887	-0.004286 	0.000878
-99.375000	-0.006418	-3.312500	3.306082	-0.004288 	0.000878
-99.350000	-0.006390	-3.311667	3.305277	-0.004290 	0.000879
-99.325000	-0.006363	-3.310833	3.304470	-0.004293 	0.000879
-99.300000	-0.006335	-3.310000	3.303665	-0.004295 	0.000879
-99.275000	-0.006308	-3.309167	3.302859	-0.004297 	0.000879
-99.250000	-0.006280	-3.308333	3.302053	-0.004299 	0.000879
-99.225000	-0.006253	-3.307500	3.301247	-0.004302 	0.000879
-99.200000	-0.006225	-3.306667	3.300442	-0.004304 	0.000879
-99.175000	-0.006197	-3.305833	3.299636	-0.004306 	0.000879
-99.150000	-0.006170	-3.305000	3.298830	-0.004308 	0.000879
-99.125000	-0.006142	-3.304167	3.298025	-0.004310 	0.000879
-99.100000	-0.006114	-3.303333	3.297219	-0.004313 	0.000880
-99.075000	-0.006087	-3.302500	3.296413	-0.004315 	0.000880
-99.050000	-0.006059	-3.301667	3.295608	-0.004317 	0.000880
-99.025000	-0.006031	-3.300833	3.294802	-0.004319 	0.000880
-99.000000	-0.006003	-3.300000	3.293997	-0.004321 	0.000880
-98.975000	-0.005976	-3.299167	3.293191	-0.004324 	0.000880
-98.950000	-0.005948	-3.298333	3.292385	-0.004326 	0.000880
-98.925000	-0.005920	-3.297500	3.291580	-0.004328 	0.000880
-98.900000	-0.005892	-3.296667	3.290775	-0.004330 	0.000880
-98.875000	-0.005864	-3.295833	3.289969	-0.004332 	0.000881
-98.850000	-0.005837	-3.295000	3.289163	-0.004334 	0.000881
-98.825000	-0.005809	-3.294167	3.288358	-0.004337 	0.000881
-98.800000	-0.005781	-3.293333	3.287552	-0.004339 	0.000881
-98.775000	-0.005753	-3.292500	3.286747	-0.004341 	0.000881
-98.750000	-0.005725	-3.291667	3.285942	-0.004343 	0.000881
-98.725000	-0.005697	-3.290833	3.285136	-0.004345 	0.000881
-98.700000	-0.005669	-3.290000	3.284331	-0.004347 	0.000881
-98.675000	-0.005642	-3.289167	3.283525	-0.004349 	0.000881
-98.650000	-0.005614	-3.288333	3.282719	-0.004352 	0.000882
-98.625000	-0.005586	-3.287500	3.281914	-0.004354 	0.000882
-98.600000	-0.005558	-3.286667	3.281109	-0.004356 	0.000882
-98.575000	-0.005530	-3.285833	3.280303	-0.004358 	0.000882
-98.550000	-0.005502	-3.285000	3.279498	-0.004360 	0.000882
-98.525000	-0.005474	-3.284167	3.278693	-0.004362 	0.000882
-98.500000	-0.005446	-3.283333	3.277887	-0.004364 	0.000882
-98.475000	-0.005418	-3.282500	3.277082	-0.004366 	0.000882
-98.450000	-0.005390	-3.281667	3.276277	-0.004368 	0.000882
-98.425000	-0.005362	-3.280833	3.275471	-0.004371 	0.000883
-98.400000	-0.005334	-3.280000	3.274666	-0.004373 	0.000883
-98.375000	-0.005306	-3.279167	3.273861	-0.004375 	0.000883
-98.350000	-0.005277	-3.278333	3.273056	-0.004377 	0.000883
-98.325000	-0.005249	-3.277500	3.272251	-0.004379 	0.000883
-98.300000	-0.005221	-3.276667	3.271446	-0.004381 	0.000883
-98.275000	-0.005193	-3.275833	3.270640	-0.004383 	0.000883
-98.250000	-0.005165	-3.275000	3.269835	-0.004385 	0.000883
-98.225000	-0.005137	-3.274167	3.269030	-0.004387 	0.000883
-98.200000	-0.005109	-3.273333	3.268224	-0.004389 	0.000883
-98.175000	-0.005080	-3.272500	3.267420	-0.004391 	0.000884
-98.150000	-0.005052	-3.271667	3.266615	-0.004393 	0.000884
-98.125000	-0.005024	-3.270833	3.265809	-0.004395 	0.000884
-98.100000	-0.004996	-3.270000	3.265004	-0.004397 	0.000884
-98.075000	-0.004968	-3.269167	3.264199	-0.004399 	0.000884
-98.050000	-0.004939	-3.268333	3.263394	-0.004401 	0.000884
-98.025000	-0.004911	-3.267500	3.262589	-0.004403 	0.000884
-98.000000	-0.004883	-3.266667	3.261784	-0.004405 	0.000884
-97.975000	-0.004854	-3.265833	3.260979	-0.004407 	0.000884
-97.950000	-0.004826	-3.265000	3.260174	-0.004409 	0.000885
-97.925000	-0.004798	-3.264167	3.259369	-0.004411 	0.000885
-97.900000	-0.004769	-3.263333	3.258564	-0.004413 	0.000885
-97.875000	-0.004741	-3.262500	3.257759	-0.004415 	0.000885
-97.850000	-0.004713	-3.261667	3.256954	-0.004417 	0.000885
-97.825000	-0.004684	-3.260833	3.256149	-0.004419 	0.000885
-97.800000	-0.004656	-3.260000	3.255344	-0.004421 	0.000885
-97.775000	-0.004628	-3.259167	3.254539	-0.004423 	0.000885
-97.750000	-0.004599	-3.258333	3.253734	-0.004425 	0.000885
-97.725000	-0.004571	-3.257500	3.252929	-0.004427 	0.000886
-97.700000	-0.004542	-3.256667	3.252125	-0.004429 	0.000886
-97.675000	-0.004514	-3.255833	3.251319	-0.004430 	0.000886
-97.650000	-0.004485	-3.255000	3.250515	-0.004432 	0.000886
-97.625000	-0.004457	-3.254167	3.249710	-0.004434 	0.000886
-97.600000	-0.004428	-3.253333	3.248905	-0.004436 	0.000886
-97.575000	-0.004400	-3.252500	3.248100	-0.004438 	0.000886
-97.550000	-0.004371	-3.251667	3.247296	-0.004440 	0.000886
-97.525000	-0.004343	-3.250833	3.246490	-0.004442 	0.000886
-97.500000	-0.004314	-3.250000	3.245686	-0.004444 	0.000887
-97.475000	-0.004286	-3.249167	3.244881	-0.004446 	0.000887
-97.450000	-0.004257	-3.248333	3.244076	-0.004448 	0.000887
-97.425000	-0.004229	-3.247500	3.243271	-0.004450 	0.000887
-97.400000	-0.004200	-3.246667	3.242467	-0.004452 	0.000887
-97.375000	-0.004172	-3.245833	3.241661	-0.004454 	0.000887
-97.350000	-0.004143	-3.245000	3.240857	-0.004456 	0.000887
-97.325000	-0.004115	-3.244167	3.240052	-0.004458 	0.000887
-97.300000	-0.004086	-3.243333	3.239247	-0.004459 	0.000887
-97.275000	-0.004057	-3.242500	3.238443	-0.004461 	0.000888
-97.250000	-0.004029	-3.241667	3.237638	-0.004463 	0.000888
-97.225000	-0.004000	-3.240833	3.236833	-0.004465 	0.000888
-97.200000	-0.003971	-3.240000	3.236029	-0.004467 	0.000888
-97.175000	-0.003943	-3.239167	3.235224	-0.004469 	0.000888
-97.150000	-0.003914	-3.238333	3.234419	-0.004471 	0.000888
-97.125000	-0.003885	-3.237500	3.233615	-0.004473 	0.000888
-97.100000	-0.003857	-3.236667	3.232810	-0.004474 	0.000888
-97.075000	-0.003828	-3.235833	3.232005	-0.004476 	0.000888
-97.050000	-0.003799	-3.235000	3.231201	-0.004478 	0.000889
-97.025000	-0.003771	-3.234167	3.230396	-0.004480 	0.000889
-97.000000	-0.003742	-3.233333	3.229591	-0.004482 	0.000889
-96.975000	-0.003713	-3.232500	3.228787	-0.004484 	0.000889
-96.950000	-0.003684	-3.231667	3.227983	-0.004485 	0.000889
-96.925000	-0.003655	-3.230833	3.227178	-0.004487 	0.000889
-96.900000	-0.003627	-3.230000	3.226373	-0.004489 	0.000889
-96.875000	-0.003598	-3.229167	3.225569	-0.004491 	0.000889
-96.850000	-0.003569	-3.228333	3.224764	-0.004493 	0.000889
-96.825000	-0.003540	-3.227500	3.223960	-0.004494 	0.000890
-96.800000	-0.003511	-3.226667	3.223156	-0.004496 	0.000890
-96.775000	-0.003482	-3.225833	3.222351	-0.004498 	0.000890
-96.750000	-0.003454	-3.225000	3.221546	-0.004500 	0.000890
-96.725000	-0.003425	-3.224167	3.220742	-0.004501 	0.000890
-96.700000	-0.003396	-3.223333	3.219937	-0.004503 	0.000890
-96.675000	-0.003367	-3.222500	3.219133	-0.004505 	0.000890
-96.650000	-0.003338	-3.221667	3.218329	-0.004507 	0.000890
-96.625000	-0.003309	-3.220833	3.217524	-0.004508 	0.000890
-96.600000	-0.003280	-3.220000	3.216720	-0.004510 	0.000891
-96.575000	-0.003251	-3.219167	3.215916	-0.004512 	0.000891
-96.550000	-0.003222	-3.218333	3.215111	-0.004514 	0.000891
-96.525000	-0.003193	-3.217500	3.214307	-0.004515 	0.000891
-96.500000	-0.003164	-3.216667	3.213503	-0.004517 	0.000891
-96.475000	-0.003135	-3.215833	3.212698	-0.004519 	0.000891
-96.450000	-0.003106	-3.215000	3.211894	-0.004520 	0.000891
-96.425000	-0.003077	-3.214167	3.211090	-0.004522 	0.000891
-96.400000	-0.003048	-3.213333	3.210285	-0.004524 	0.000891
-96.375000	-0.003019	-3.212500	3.209481	-0.004526 	0.000892
-96.350000	-0.002990	-3.211667	3.208677	-0.004527 	0.000892
-96.325000	-0.002961	-3.210833	3.207872	-0.004529 	0.000892
-96.300000	-0.002932	-3.210000	3.207068	-0.004531 	0.000892
-96.275000	-0.002903	-3.209167	3.206264	-0.004532 	0.000892
-96.250000	-0.002874	-3.208333	3.205459	-0.004534 	0.000892
-96.225000	-0.002845	-3.207500	3.204655	-0.004536 	0.000892
-96.200000	-0.002815	-3.206667	3.203852	-0.004537 	0.000892
-96.175000	-0.002786	-3.205833	3.203047	-0.004539 	0.000892
-96.150000	-0.002757	-3.205000	3.202243	-0.004541 	0.000893
-96.125000	-0.002728	-3.204167	3.201439	-0.004542 	0.000893
-96.100000	-0.002699	-3.203333	3.200634	-0.004544 	0.000893
-96.075000	-0.002670	-3.202500	3.199830	-0.004545 	0.000893
-96.050000	-0.002640	-3.201667	3.199027	-0.004547 	0.000893
-96.025000	-0.002611	-3.200833	3.198222	-0.004549 	0.000893
-96.000000	-0.002582	-3.200000	3.197418	-0.004550 	0.000893
-95.975000	-0.002553	-3.199167	3.196614	-0.004552 	0.000893
-95.950000	-0.002524	-3.198333	3.195809	-0.004554 	0.000893
-95.925000	-0.002494	-3.197500	3.195006	-0.004555 	0.000894
-95.900000	-0.002465	-3.196667	3.194202	-0.004557 	0.000894
-95.875000	-0.002436	-3.195833	3.193397	-0.004558 	0.000894
-95.850000	-0.002407	-3.195000	3.192593	-0.004560 	0.000894
-95.825000	-0.002377	-3.194167	3.191790	-0.004561 	0.000894
-95.800000	-0.002348	-3.193333	3.190985	-0.004563 	0.000894
-95.775000	-0.002319	-3.192500	3.190181	-0.004565 	0.000894
-95.750000	-0.002289	-3.191667	3.189378	-0.004566 	0.000894
-95.725000	-0.002260	-3.190833	3.188573	-0.004568 	0.000894
-95.700000	-0.002231	-3.190000	3.187769	-0.004569 	0.000895
-95.675000	-0.002201	-3.189167	3.186966	-0.004571 	0.000895
-95.650000	-0.002172	-3.188333	3.186161	-0.004572 	0.000895
-95.625000	-0.002143	-3.187500	3.185357	-0.004574 	0.000895
-95.600000	-0.002113	-3.186667	3.184554	-0.004576 	0.000895
-95.575000	-0.002084	-3.185833	3.183749	-0.004577 	0.000895
-95.550000	-0.002055	-3.185000	3.182945	-0.004579 	0.000895
-95.525000	-0.002025	-3.184167	3.182142	-0.004580 	0.000895
-95.500000	-0.001996	-3.183333	3.181337	-0.004582 	0.000895
-95.475000	-0.001966	-3.182500	3.180534	-0.004583 	0.000896
-95.450000	-0.001937	-3.181667	3.179730	-0.004585 	0.000896
-95.425000	-0.001908	-3.180833	3.178925	-0.004586 	0.000896
-95.400000	-0.001878	-3.180000	3.178122	-0.004588 	0.000896
-95.375000	-0.001849	-3.179167	3.177318	-0.004589 	0.000896
-95.350000	-0.001819	-3.178333	3.176514	-0.004591 	0.000896
-95.325000	-0.001790	-3.177500	3.175710	-0.004592 	0.000896
-95.300000	-0.001760	-3.176667	3.174907	-0.004594 	0.000896
-95.275000	-0.001731	-3.175833	3.174102	-0.004595 	0.000896
-95.250000	-0.001701	-3.175000	3.173299	-0.004596 	0.000897
-95.225000	-0.001672	-3.174167	3.172495	-0.004598 	0.000897
-95.200000	-0.001642	-3.173333	3.171691	-0.004599 	0.000897
-95.175000	-0.001613	-3.172500	3.170887	-0.004601 	0.000897
-95.150000	-0.001583	-3.171667	3.170084	-0.004602 	0.000897
-95.125000	-0.001554	-3.170833	3.169279	-0.004604 	0.000897
-95.100000	-0.001524	-3.170000	3.168476	-0.004605 	0.000897
-95.075000	-0.001494	-3.169167	3.167673	-0.004607 	0.000897
-95.050000	-0.001465	-3.168333	3.166868	-0.004608 	0.000898
-95.025000	-0.001435	-3.167500	3.166065	-0.004609 	0.000898
-95.000000	-0.001406	-3.166667	3.165261	-0.004611 	0.000898
-94.975000	-0.001376	-3.165833	3.164457	-0.004612 	0.000898
-94.950000	-0.001346	-3.165000	3.163654	-0.004614 	0.000898
-94.925000	-0.001317	-3.164167	3.162850	-0.004615 	0.000898
-94.900000	-0.001287	-3.163333	3.162046	-0.004616 	0.000898
-94.875000	-0.001257	-3.162500	3.161243	-0.004618 	0.000898
-94.850000	-0.001228	-3.161667	3.160439	-0.004619 	0.000898
-94.825000	-0.001198	-3.160833	3.159635	-0.004621 	0.000899
-94.800000	-0.001168	-3.160000	3.158832	-0.004622 	0.000899
-94.775000	-0.001139	-3.159167	3.158028	-0.004623 	0.000899
-94.750000	-0.001109	-3.158333	3.157224	-0.004625 	0.000899
-94.725000	-0.001079	-3.157500	3.156421	-0.004626 	0.000899
-94.700000	-0.001050	-3.156667	3.155617	-0.004627 	0.000899
-94.675000	-0.001020	-3.155833	3.154813	-0.004629 	0.000899
-94.650000	-0.000990	-3.155000	3.154010	-0.004630 	0.000899
-94.625000	-0.000960	-3.154167	3.153207	-0.004631 	0.000899
-94.600000	-0.000931	-3.153333	3.152402	-0.004633 	0.000900
-94.575000	-0.000901	-3.152500	3.151599	-0.004634 	0.000900
-94.550000	-0.000871	-3.151667	3.150796	-0.004635 	0.000900
-94.525000	-0.000841	-3.150833	3.149992	-0.004637 	0.000900
-94.500000	-0.000812	-3.150000	3.149188	-0.004638 	0.000900
-94.475000	-0.000782	-3.149167	3.148385	-0.004639 	0.000900
-94.450000	-0.000752	-3.148333	3.147581	-0.004640 	0.000900
-94.425000	-0.000722	-3.147500	3.146778	-0.004642 	0.000900
-94.400000	-0.000692	-3.146667	3.145975	-0.004643 	0.000900
-94.375000	-0.000663	-3.145833	3.145170	-0.004644 	0.000901
-94.350000	-0.000633	-3.145000	3.144367	-0.004646 	0.000901
-94.325000	-0.000603	-3.144167	3.143564	-0.004647 	0.000901
-94.300000	-0.000573	-3.143333	3.142760	-0.004648 	0.000901
-94.275000	-0.000543	-3.142500	3.141957	-0.004649 	0.000901
-94.250000	-0.000513	-3.141667	3.141154	-0.004651 	0.000901
-94.225000	-0.000483	-3.140833	3.140350	-0.004652 	0.000901
-94.200000	-0.000454	-3.140000	3.139546	-0.004653 	0.000901
-94.175000	-0.000424	-3.139167	3.138743	-0.004654 	0.000902
-94.150000	-0.000394	-3.138333	3.137939	-0.004656 	0.000902
-94.125000	-0.000364	-3.137500	3.137136	-0.004657 	0.000902
-94.100000	-0.000334	-3.136667	3.136333	-0.004658 	0.000902
-94.075000	-0.000304	-3.135833	3.135529	-0.004659 	0.000902
-94.050000	-0.000274	-3.135000	3.134726	-0.004660 	0.000902
-94.025000	-0.000244	-3.134167	3.133923	-0.004662 	0.000902
-94.000000	-0.000214	-3.133333	3.133119	-0.004663 	0.000902
-93.975000	-0.000184	-3.132500	3.132316	-0.004664 	0.000902
-93.950000	-0.000154	-3.131667	3.131513	-0.004665 	0.000903
-93.925000	-0.000124	-3.130833	3.130709	-0.004666 	0.000903
-93.900000	-0.000094	-3.130000	3.129906	-0.004668 	0.000903
-93.875000	-0.000064	-3.129167	3.129103	-0.004669 	0.000903
-93.850000	-0.000034	-3.128333	3.128299	-0.004670 	0.000903
-93.825000	-0.000004	-3.127500	3.127496	-0.004671 	0.000903
-93.800000	0.000026	-3.126667	3.126693	-0.004672 	0.000903
-93.775000	0.000056	-3.125833	3.125889	-0.004673 	0.000903
-93.750000	0.000086	-3.125000	3.125086	-0.004674 	0.000903
-93.725000	0.000116	-3.124167	3.124283	-0.004676 	0.000904
-93.700000	0.000146	-3.123333	3.123479	-0.004677 	0.000904
-93.675000	0.000176	-3.122500	3.122676	-0.004678 	0.000904
-93.650000	0.000206	-3.121667	3.121873	-0.004679 	0.000904
-93.625000	0.000236	-3.120833	3.121069	-0.004680 	0.000904
-93.600000	0.000266	-3.120000	3.120266	-0.004681 	0.000904
-93.575000	0.000296	-3.119167	3.119463	-0.004682 	0.000904
-93.550000	0.000326	-3.118333	3.118659	-0.004684 	0.000904
-93.525000	0.000356	-3.117500	3.117856	-0.004685 	0.000905
-93.500000	0.000386	-3.116667	3.117053	-0.004686 	0.000905
-93.475000	0.000416	-3.115833	3.116249	-0.004687 	0.000905
-93.450000	0.000446	-3.115000	3.115446	-0.004688 	0.000905
-93.425000	0.000477	-3.114167	3.114644	-0.004689 	0.000905
-93.400000	0.000507	-3.113333	3.113840	-0.004690 	0.000905
-93.375000	0.000537	-3.112500	3.113037	-0.004691 	0.000905
-93.350000	0.000567	-3.111667	3.112234	-0.004693 	0.000905
-93.325000	0.000597	-3.110833	3.111430	-0.004694 	0.000905
-93.300000	0.000627	-3.110000	3.110627	-0.004695 	0.000906
-93.275000	0.000657	-3.109167	3.109824	-0.004696 	0.000906
-93.250000	0.000687	-3.108333	3.109020	-0.004697 	0.000906
-93.225000	0.000717	-3.107500	3.108217	-0.004698 	0.000906
-93.200000	0.000748	-3.106667	3.107415	-0.004699 	0.000906
-93.175000	0.000778	-3.105833	3.106611	-0.004700 	0.000906
-93.150000	0.000808	-3.105000	3.105808	-0.004701 	0.000906
-93.125000	0.000838	-3.104167	3.105005	-0.004702 	0.000906
-93.100000	0.000868	-3.103333	3.104201	-0.004703 	0.000907
-93.075000	0.000899	-3.102500	3.103399	-0.004704 	0.000907
-93.050000	0.000929	-3.101667	3.102596	-0.004706 	0.000907
-93.025000	0.000959	-3.100833	3.101792	-0.004707 	0.000907
-93.000000	0.000989	-3.100000	3.100989	-0.004708 	0.000907
-92.975000	0.001019	-3.099167	3.100186	-0.004709 	0.000907
-92.950000	0.001050	-3.098333	3.099383	-0.004710 	0.000907
-92.925000	0.001080	-3.097500	3.098580	-0.004711 	0.000907
-92.900000	0.001110	-3.096667	3.097777	-0.004712 	0.000907
-92.875000	0.001140	-3.095833	3.096973	-0.004713 	0.000908
-92.850000	0.001171	-3.095000	3.096171	-0.004713 	0.000908
-92.825000	0.001201	-3.094167	3.095368	-0.004714 	0.000908
-92.800000	0.001231	-3.093333	3.094564	-0.004715 	0.000908
-92.775000	0.001262	-3.092500	3.093762	-0.004716 	0.000908
-92.750000	0.001292	-3.091667	3.092959	-0.004717 	0.000908
-92.725000	0.001322	-3.090833	3.092155	-0.004718 	0.000908
-92.700000	0.001352	-3.090000	3.091352	-0.004719 	0.000908
-92.675000	0.001383	-3.089167	3.090550	-0.004720 	0.000909
-92.650000	0.001413	-3.088333	3.089746	-0.004721 	0.000909
-92.625000	0.001443	-3.087500	3.088943	-0.004722 	0.000909
-92.600000	0.001474	-3.086667	3.088141	-0.004723 	0.000909
-92.575000	0.001504	-3.085833	3.087337	-0.004724 	0.000909
-92.550000	0.001534	-3.085000	3.086534	-0.004725 	0.000909
-92.525000	0.001565	-3.084167	3.085732	-0.004725 	0.000909
-92.500000	0.001595	-3.083333	3.084928	-0.004726 	0.000909
-92.475000	0.001626	-3.082500	3.084126	-0.004727 	0.000909
-92.450000	0.001656	-3.081667	3.083323	-0.004728 	0.000910
-92.425000	0.001686	-3.080833	3.082519	-0.004729 	0.000910
-92.400000	0.001717	-3.080000	3.081717	-0.004730 	0.000910
-92.375000	0.001747	-3.079167	3.080914	-0.004731 	0.000910
-92.350000	0.001777	-3.078333	3.080110	-0.004731 	0.000910
-92.325000	0.001808	-3.077500	3.079308	-0.004732 	0.000910
-92.300000	0.001838	-3.076667	3.078505	-0.004733 	0.000910
-92.275000	0.001869	-3.075833	3.077702	-0.004734 	0.000910
-92.250000	0.001899	-3.075000	3.076899	-0.004735 	0.000911
-92.225000	0.001930	-3.074167	3.076097	-0.004736 	0.000911
-92.200000	0.001960	-3.073333	3.075293	-0.004736 	0.000911
-92.175000	0.001990	-3.072500	3.074490	-0.004737 	0.000911
-92.150000	0.002021	-3.071667	3.073688	-0.004738 	0.000911
-92.125000	0.002051	-3.070833	3.072884	-0.004739 	0.000911
-92.100000	0.002082	-3.070000	3.072082	-0.004739 	0.000911
-92.075000	0.002112	-3.069167	3.071279	-0.004740 	0.000911
-92.050000	0.002143	-3.068333	3.070476	-0.004741 	0.000911
-92.025000	0.002173	-3.067500	3.069673	-0.004742 	0.000912
-92.000000	0.002204	-3.066667	3.068871	-0.004743 	0.000912
-91.975000	0.002234	-3.065833	3.068067	-0.004743 	0.000912
-91.950000	0.002265	-3.065000	3.067265	-0.004744 	0.000912
-91.925000	0.002295	-3.064167	3.066462	-0.004745 	0.000912
-91.900000	0.002326	-3.063333	3.065659	-0.004745 	0.000912
-91.875000	0.002356	-3.062500	3.064856	-0.004746 	0.000912
-91.850000	0.002387	-3.061667	3.064054	-0.004747 	0.000912
-91.825000	0.002417	-3.060833	3.063250	-0.004748 	0.000913
-91.800000	0.002448	-3.060000	3.062448	-0.004748 	0.000913
-91.775000	0.002478	-3.059167	3.061645	-0.004749 	0.000913
-91.750000	0.002509	-3.058333	3.060842	-0.004750 	0.000913
-91.725000	0.002539	-3.057500	3.060039	-0.004750 	0.000913
-91.700000	0.002570	-3.056667	3.059237	-0.004751 	0.000913
-91.675000	0.002600	-3.055833	3.058433	-0.004752 	0.000913
-91.650000	0.002631	-3.055000	3.057631	-0.004752 	0.000913
-91.625000	0.002662	-3.054167	3.056829	-0.004753 	0.000914
-91.600000	0.002692	-3.053333	3.056025	-0.004754 	0.000914
-91.575000	0.002723	-3.052500	3.055223	-0.004754 	0.000914
-91.550000	0.002753	-3.051667	3.054420	-0.004755 	0.000914
-91.525000	0.002784	-3.050833	3.053617	-0.004756 	0.000914
-91.500000	0.002814	-3.050000	3.052814	-0.004756 	0.000914
-91.475000	0.002845	-3.049167	3.052012	-0.004757 	0.000914
-91.450000	0.002876	-3.048333	3.051209	-0.004758 	0.000914
-91.425000	0.002906	-3.047500	3.050406	-0.004758 	0.000914
-91.400000	0.002937	-3.046667	3.049604	-0.004759 	0.000915
-91.375000	0.002967	-3.045833	3.048800	-0.004760 	0.000915
-91.350000	0.002998	-3.045000	3.047998	-0.004760 	0.000915
-91.325000	0.003029	-3.044167	3.047196	-0.004761 	0.000915
-91.300000	0.003059	-3.043333	3.046392	-0.004761 	0.000915
-91.275000	0.003090	-3.042500	3.045590	-0.004762 	0.000915
-91.250000	0.003120	-3.041667	3.044787	-0.004763 	0.000915
-91.225000	0.003151	-3.040833	3.043984	-0.004763 	0.000915
-91.200000	0.003182	-3.040000	3.043182	-0.004764 	0.000916
-91.175000	0.003212	-3.039167	3.042379	-0.004764 	0.000916
-91.150000	0.003243	-3.038333	3.041576	-0.004765 	0.000916
-91.125000	0.003274	-3.037500	3.040774	-0.004765 	0.000916
-91.100000	0.003304	-3.036667	3.039971	-0.004766 	0.000916
-91.075000	0.003335	-3.035833	3.039168	-0.004767 	0.000916
-91.050000	0.003366	-3.035000	3.038366	-0.004767 	0.000916
-91.025000	0.003396	-3.034167	3.037563	-0.004768 	0.000916
-91.000000	0.003427	-3.033333	3.036760	-0.004768 	0.000917
-90.975000	0.003458	-3.032500	3.035958	-0.004769 	0.000917
-90.950000	0.003488	-3.031667	3.035155	-0.004769 	0.000917
-90.925000	0.003519	-3.030833	3.034352	-0.004770 	0.000917
-90.900000	0.003550	-3.030000	3.033550	-0.004770 	0.000917
-90.875000	0.003580	-3.029167	3.032747	-0.004771 	0.000917
-90.850000	0.003611	-3.028333	3.031944	-0.004771 	0.000917
-90.825000	0.003642	-3.027500	3.031142	-0.004772 	0.000917
-90.800000	0.003672	-3.026667	3.030339	-0.004772 	0.000918
-90.775000	0.003703	-3.025833	3.029536	-0.004773 	0.000918
-90.750000	0.003734	-3.025000	3.028734	-0.004773 	0.000918
-90.725000	0.003764	-3.024167	3.027931	-0.004773 	0.000918
-90.700000	0.003795	-3.023333	3.027128	-0.004774 	0.000918
-90.675000	0.003826	-3.022500	3.026326	-0.004774 	0.000918
-90.650000	0.003857	-3.021667	3.025524	-0.004775 	0.000918
-90.625000	0.003887	-3.020833	3.024720	-0.004775 	0.000918
-90.600000	0.003918	-3.020000	3.023918	-0.004776 	0.000918
-90.575000	0.003949	-3.019167	3.023116	-0.004776 	0.000919
-90.550000	0.003979	-3.018333	3.022312	-0.004776 	0.000919
-90.525000	0.004010	-3.017500	3.021510	-0.004777 	0.000919
-90.500000	0.004041	-3.016667	3.020708	-0.004777 	0.000919
-90.475000	0.004072	-3.015833	3.019905	-0.004778 	0.000919
-90.450000	0.004102	-3.015000	3.019102	-0.004778 	0.000919
-90.425000	0.004133	-3.014167	3.018300	-0.004778 	0.000919
-90.400000	0.004164	-3.013333	3.017497	-0.004779 	0.000919
-90.375000	0.004195	-3.012500	3.016695	-0.004779 	0.000920
-90.350000	0.004225	-3.011667	3.015892	-0.004780 	0.000920
-90.325000	0.004256	-3.010833	3.015089	-0.004780 	0.000920
-90.300000	0.004287	-3.010000	3.014287	-0.004780 	0.000920
-90.275000	0.004318	-3.009167	3.013485	-0.004781 	0.000920
-90.250000	0.004349	-3.008333	3.012682	-0.004781 	0.000920
-90.225000	0.004379	-3.007500	3.011879	-0.004781 	0.000920
-90.200000	0.004410	-3.006667	3.011077	-0.004782 	0.000920
-90.175000	0.004441	-3.005833	3.010274	-0.004782 	0.000921
-90.150000	0.004472	-3.005000	3.009472	-0.004782 	0.000921
-90.125000	0.004502	-3.004167	3.008669	-0.004782 	0.000921
-90.100000	0.004533	-3.003333	3.007866	-0.004783 	0.000921
-90.075000	0.004564	-3.002500	3.007064	-0.004783 	0.000921
-90.050000	0.004595	-3.001667	3.006262	-0.004783 	0.000921
-90.025000	0.004626	-3.000833	3.005459	-0.004784 	0.000921
-90.000000	0.004656	-3.000000	3.004656	-0.004784 	0.000921
-89.975000	0.004687	-2.999167	3.003854	-0.004784 	0.000922
-89.950000	0.004718	-2.998333	3.003051	-0.004784 	0.000922
-89.925000	0.004749	-2.997500	3.002249	-0.004785 	0.000922
-89.900000	0.004780	-2.996667	3.001447	-0.004785 	0.000922
-89.875000	0.004810	-2.995833	3.000643	-0.004785 	0.000922
-89.850000	0.004841	-2.995000	2.999841	-0.004785 	0.000922
-89.825000	0.004872	-2.994167	2.999039	-0.004786 	0.000922
-89.800000	0.004903	-2.993333	2.998236	-0.004786 	0.000922
-89.775000	0.004934	-2.992500	2.997434	-0.004786 	0.000923
-89.750000	0.004964	-2.991667	2.996631	-0.004786 	0.000923
-89.725000	0.004995	-2.990833	2.995828	-0.004787 	0.000923
-89.700000	0.005026	-2.990000	2.995026	-0.004787 	0.000923
-89.675000	0.005057	-2.989167	2.994224	-0.004787 	0.000923
-89.650000	0.005088	-2.988333	2.993421	-0.004787 	0.000923
-89.625000	0.005119	-2.987500	2.992619	-0.004787 	0.000923
-89.600000	0.005149	-2.986667	2.991816	-0.004787 	0.000923
-89.575000	0.005180	-2.985833	2.991013	-0.004788 	0.000924
-89.550000	0.005211	-2.985000	2.990211	-0.004788 	0.000924
-89.525000	0.005242	-2.984167	2.989409	-0.004788 	0.000924
-89.500000	0.005273	-2.983333	2.988606	-0.004788 	0.000924
-89.475000	0.005304	-2.982500	2.987804	-0.004788 	0.000924
-89.450000	0.005334	-2.981667	2.987001	-0.004788 	0.000924
-89.425000	0.005365	-2.980833	2.986198	-0.004789 	0.000924
-89.400000	0.005396	-2.980000	2.985396	-0.004789 	0.000924
-89.375000	0.005427	-2.979167	2.984594	-0.004789 	0.000925
-89.350000	0.005458	-2.978333	2.983791	-0.004789 	0.000925
-89.325000	0.005489	-2.977500	2.982989	-0.004789 	0.000925
-89.300000	0.005520	-2.976667	2.982187	-0.004789 	0.000925
-89.275000	0.005550	-2.975833	2.981383	-0.004789 	0.000925
-89.250000	0.005581	-2.975000	2.980581	-0.004789 	0.000925
-89.225000	0.005612	-2.974167	2.979779	-0.004789 	0.000925
-89.200000	0.005643	-2.973333	2.978976	-0.004789 	0.000925
-89.175000	0.005674	-2.972500	2.978174	-0.004789 	0.000926
-89.150000	0.005705	-2.971667	2.977372	-0.004790 	0.000926
-89.125000	0.005736	-2.970833	2.976569	-0.004790 	0.000926
-89.100000	0.005766	-2.970000	2.975766	-0.004790 	0.000926
-89.075000	0.005797	-2.969167	2.974964	-0.004790 	0.000926
-89.050000	0.005828	-2.968333	2.974161	-0.004790 	0.000926
-89.025000	0.005859	-2.967500	2.973359	-0.004790 	0.000926
-89.000000	0.005890	-2.966667	2.972557	-0.004790 	0.000926
-88.975000	0.005921	-2.965833	2.971754	-0.004790 	0.000927
-88.950000	0.005952	-2.965000	2.970952	-0.004790 	0.000927
-88.925000	0.005982	-2.964167	2.970149	-0.004790 	0.000927
-88.900000	0.006013	-2.963333	2.969346	-0.004790 	0.000927
-88.875000	0.006044	-2.962500	2.968544	-0.004790 	0.000927
-88.850000	0.006075	-2.961667	2.967742	-0.004790 	0.000927
-88.825000	0.006106	-2.960833	2.966939	-0.004790 	0.000927
-88.800000	0.006137	-2.960000	2.966137	-0.004790 	0.000927
-88.775000	0.006168	-2.959167	2.965335	-0.004790 	0.000928
-88.750000	0.006199	-2.958333	2.964532	-0.004790 	0.000928
-88.725000	0.006229	-2.957500	2.963729	-0.004790 	0.000928
-88.700000	0.006260	-2.956667	2.962927	-0.004789 	0.000928
-88.675000	0.006291	-2.955833	2.962124	-0.004789 	0.000928
-88.650000	0.006322	-2.955000	2.961322	-0.004789 	0.000928
-88.625000	0.006353	-2.954167	2.960520	-0.004789 	0.000928
-88.600000	0.006384	-2.953333	2.959717	-0.004789 	0.000928
-88.575000	0.006415	-2.952500	2.958915	-0.004789 	0.000929
-88.550000	0.006446	-2.951667	2.958113	-0.004789 	0.000929
-88.525000	0.006476	-2.950833	2.957309	-0.004789 	0.000929
-88.500000	0.006507	-2.950000	2.956507	-0.004789 	0.000929
-88.475000	0.006538	-2.949167	2.955705	-0.004789 	0.000929
-88.450000	0.006569	-2.948333	2.954902	-0.004789 	0.000929
-88.425000	0.006600	-2.947500	2.954100	-0.004788 	0.000929
-88.400000	0.006631	-2.946667	2.953298	-0.004788 	0.000929
-88.375000	0.006662	-2.945833	2.952495	-0.004788 	0.000930
-88.350000	0.006693	-2.945000	2.951693	-0.004788 	0.000930
-88.325000	0.006724	-2.944167	2.950891	-0.004788 	0.000930
-88.300000	0.006754	-2.943333	2.950087	-0.004788 	0.000930
-88.275000	0.006785	-2.942500	2.949285	-0.004787 	0.000930
-88.250000	0.006816	-2.941667	2.948483	-0.004787 	0.000930
-88.225000	0.006847	-2.940833	2.947680	-0.004787 	0.000930
-88.200000	0.006878	-2.940000	2.946878	-0.004787 	0.000930
-88.175000	0.006909	-2.939167	2.946076	-0.004787 	0.000931
-88.150000	0.006940	-2.938333	2.945273	-0.004787 	0.000931
-88.125000	0.006971	-2.937500	2.944471	-0.004786 	0.000931
-88.100000	0.007001	-2.936667	2.943668	-0.004786 	0.000931
-88.075000	0.007032	-2.935833	2.942865	-0.004786 	0.000931
-88.050000	0.007063	-2.935000	2.942063	-0.004786 	0.000931
-88.025000	0.007094	-2.934167	2.941261	-0.004785 	0.000931
-88.000000	0.007125	-2.933333	2.940458	-0.004785 	0.000931
-87.975000	0.007156	-2.932500	2.939656	-0.004785 	0.000932
-87.950000	0.007187	-2.931667	2.938854	-0.004785 	0.000932
-87.925000	0.007218	-2.930833	2.938051	-0.004784 	0.000932
-87.900000	0.007248	-2.930000	2.937248	-0.004784 	0.000932
-87.875000	0.007279	-2.929167	2.936446	-0.004784 	0.000932
-87.850000	0.007310	-2.928333	2.935643	-0.004784 	0.000932
-87.825000	0.007341	-2.927500	2.934841	-0.004783 	0.000932
-87.800000	0.007372	-2.926667	2.934039	-0.004783 	0.000932
-87.775000	0.007403	-2.925833	2.933236	-0.004783 	0.000933
-87.750000	0.007434	-2.925000	2.932434	-0.004782 	0.000933
-87.725000	0.007465	-2.924167	2.931632	-0.004782 	0.000933
-87.700000	0.007495	-2.923333	2.930828	-0.004782 	0.000933
-87.675000	0.007526	-2.922500	2.930026	-0.004781 	0.000933
-87.650000	0.007557	-2.921667	2.929224	-0.004781 	0.000933
-87.625000	0.007588	-2.920833	2.928421	-0.004781 	0.000933
-87.600000	0.007619	-2.920000	2.927619	-0.004780 	0.000933
-87.575000	0.007650	-2.919167	2.926817	-0.004780 	0.000934
-87.550000	0.007681	-2.918333	2.926014	-0.004780 	0.000934
-87.525000	0.007711	-2.917500	2.925211	-0.004779 	0.000934
-87.500000	0.007742	-2.916667	2.924409	-0.004779 	0.000934
-87.475000	0.007773	-2.915833	2.923606	-0.004779 	0.000934