VARIABLES = X,Ksi,B,H,U,tau 
ZONE T="Time 45.000000", I=4400, DATAPACKING=POINT
-100.000000	-0.003710	-3.333333	3.329623	0.037597 	0.000875
-99.975000	-0.003202	-3.332500	3.329298	0.036770 	0.000875
-99.950000	-0.003401	-3.331667	3.328266	0.037156 	0.000875
-99.925000	-0.003295	-3.330833	3.327538	0.037019 	0.000876
-99.900000	-0.003321	-3.330000	3.326679	0.037108 	0.000876
-99.875000	-0.003290	-3.329167	3.325877	0.037099 	0.000876
-99.850000	-0.003283	-3.328333	3.325050	0.037133 	0.000876
-99.825000	-0.003266	-3.327500	3.324234	0.037148 	0.000876
-99.800000	-0.003253	-3.326667	3.323414	0.037171 	0.000876
-99.775000	-0.003238	-3.325833	3.322595	0.037191 	0.000876
-99.750000	-0.003224	-3.325000	3.321776	0.037212 	0.000876
-99.725000	-0.003210	-3.324167	3.320957	0.037232 	0.000876
-99.700000	-0.003196	-3.323333	3.320137	0.037253 	0.000877
-99.675000	-0.003182	-3.322500	3.319318	0.037273 	0.000877
-99.650000	-0.003168	-3.321667	3.318499	0.037294 	0.000877
-99.625000	-0.003154	-3.320833	3.317679	0.037314 	0.000877
-99.600000	-0.003140	-3.320000	3.316860	0.037335 	0.000877
-99.575000	-0.003126	-3.319167	3.316041	0.037355 	0.000877
-99.550000	-0.003111	-3.318333	3.315222	0.037376 	0.000877
-99.525000	-0.003097	-3.317500	3.314403	0.037396 	0.000877
-99.500000	-0.003083	-3.316667	3.313584	0.037416 	0.000877
-99.475000	-0.003069	-3.315833	3.312764	0.037436 	0.000878
-99.450000	-0.003055	-3.315000	3.311945	0.037457 	0.000878
-99.425000	-0.003040	-3.314167	3.311127	0.037477 	0.000878
-99.400000	-0.003026	-3.313333	3.310307	0.037497 	0.000878
-99.375000	-0.003012	-3.312500	3.309488	0.037517 	0.000878
-99.350000	-0.002998	-3.311667	3.308669	0.037537 	0.000878
-99.325000	-0.002983	-3.310833	3.307850	0.037557 	0.000878
-99.300000	-0.002969	-3.310000	3.307031	0.037577 	0.000878
-99.275000	-0.002955	-3.309167	3.306212	0.037597 	0.000878
-99.250000	-0.002941	-3.308333	3.305392	0.037617 	0.000879
-99.225000	-0.002926	-3.307500	3.304574	0.037637 	0.000879
-99.200000	-0.002912	-3.306667	3.303755	0.037657 	0.000879
-99.175000	-0.002898	-3.305833	3.302935	0.037677 	0.000879
-99.150000	-0.002884	-3.305000	3.302116	0.037696 	0.000879
-99.125000	-0.002869	-3.304167	3.301298	0.037716 	0.000879
-99.100000	-0.002855	-3.303333	3.300478	0.037736 	0.000879
-99.075000	-0.002841	-3.302500	3.299659	0.037755 	0.000879
-99.050000	-0.002826	-3.301667	3.298841	0.037775 	0.000879
-99.025000	-0.002812	-3.300833	3.298021	0.037795 	0.000879
-99.000000	-0.002798	-3.300000	3.297202	0.037814 	0.000880
-98.975000	-0.002783	-3.299167	3.296384	0.037834 	0.000880
-98.950000	-0.002769	-3.298333	3.295564	0.037853 	0.000880
-98.925000	-0.002755	-3.297500	3.294745	0.037873 	0.000880
-98.900000	-0.002740	-3.296667	3.293927	0.037892 	0.000880
-98.875000	-0.002726	-3.295833	3.293107	0.037912 	0.000880
-98.850000	-0.002711	-3.295000	3.292289	0.037931 	0.000880
-98.825000	-0.002697	-3.294167	3.291470	0.037950 	0.000880
-98.800000	-0.002683	-3.293333	3.290650	0.037970 	0.000880
-98.775000	-0.002668	-3.292500	3.289832	0.037989 	0.000881
-98.750000	-0.002654	-3.291667	3.289013	0.038008 	0.000881
-98.725000	-0.002639	-3.290833	3.288194	0.038027 	0.000881
-98.700000	-0.002625	-3.290000	3.287375	0.038046 	0.000881
-98.675000	-0.002610	-3.289167	3.286557	0.038065 	0.000881
-98.650000	-0.002596	-3.288333	3.285737	0.038084 	0.000881
-98.625000	-0.002581	-3.287500	3.284919	0.038103 	0.000881
-98.600000	-0.002567	-3.286667	3.284100	0.038122 	0.000881
-98.575000	-0.002553	-3.285833	3.283280	0.038141 	0.000881
-98.550000	-0.002538	-3.285000	3.282462	0.038160 	0.000882
-98.525000	-0.002524	-3.284167	3.281643	0.038179 	0.000882
-98.500000	-0.002509	-3.283333	3.280824	0.038198 	0.000882
-98.475000	-0.002495	-3.282500	3.280005	0.038217 	0.000882
-98.450000	-0.002480	-3.281667	3.279187	0.038236 	0.000882
-98.425000	-0.002466	-3.280833	3.278367	0.038254 	0.000882
-98.400000	-0.002451	-3.280000	3.277549	0.038273 	0.000882
-98.375000	-0.002436	-3.279167	3.276731	0.038292 	0.000882
-98.350000	-0.002422	-3.278333	3.275911	0.038310 	0.000882
-98.325000	-0.002407	-3.277500	3.275093	0.038329 	0.000883
-98.300000	-0.002393	-3.276667	3.274274	0.038347 	0.000883
-98.275000	-0.002378	-3.275833	3.273455	0.038366 	0.000883
-98.250000	-0.002364	-3.275000	3.272636	0.038384 	0.000883
-98.225000	-0.002349	-3.274167	3.271818	0.038403 	0.000883
-98.200000	-0.002334	-3.273333	3.270999	0.038421 	0.000883
-98.175000	-0.002320	-3.272500	3.270180	0.038439 	0.000883
-98.150000	-0.002305	-3.271667	3.269362	0.038458 	0.000883
-98.125000	-0.002291	-3.270833	3.268542	0.038476 	0.000883
-98.100000	-0.002276	-3.270000	3.267724	0.038494 	0.000884
-98.075000	-0.002261	-3.269167	3.266906	0.038512 	0.000884
-98.050000	-0.002247	-3.268333	3.266086	0.038531 	0.000884
-98.025000	-0.002232	-3.267500	3.265268	0.038549 	0.000884
-98.000000	-0.002217	-3.266667	3.264450	0.038567 	0.000884
-97.975000	-0.002203	-3.265833	3.263630	0.038585 	0.000884
-97.950000	-0.002188	-3.265000	3.262812	0.038603 	0.000884
-97.925000	-0.002173	-3.264167	3.261994	0.038621 	0.000884
-97.900000	-0.002159	-3.263333	3.261174	0.038639 	0.000884
-97.875000	-0.002144	-3.262500	3.260356	0.038657 	0.000885
-97.850000	-0.002129	-3.261667	3.259538	0.038675 	0.000885
-97.825000	-0.002115	-3.260833	3.258718	0.038693 	0.000885
-97.800000	-0.002100	-3.260000	3.257900	0.038710 	0.000885
-97.775000	-0.002085	-3.259167	3.257082	0.038728 	0.000885
-97.750000	-0.002070	-3.258333	3.256263	0.038746 	0.000885
-97.725000	-0.002056	-3.257500	3.255444	0.038763 	0.000885
-97.700000	-0.002041	-3.256667	3.254626	0.038781 	0.000885
-97.675000	-0.002026	-3.255833	3.253807	0.038799 	0.000885
-97.650000	-0.002011	-3.255000	3.252989	0.038816 	0.000886
-97.625000	-0.001997	-3.254167	3.252170	0.038834 	0.000886
-97.600000	-0.001982	-3.253333	3.251351	0.038851 	0.000886
-97.575000	-0.001967	-3.252500	3.250533	0.038869 	0.000886
-97.550000	-0.001952	-3.251667	3.249715	0.038886 	0.000886
-97.525000	-0.001938	-3.250833	3.248895	0.038904 	0.000886
-97.500000	-0.001923	-3.250000	3.248077	0.038921 	0.000886
-97.475000	-0.001908	-3.249167	3.247259	0.038938 	0.000886
-97.450000	-0.001893	-3.248333	3.246440	0.038955 	0.000886
-97.425000	-0.001878	-3.247500	3.245622	0.038973 	0.000887
-97.400000	-0.001863	-3.246667	3.244804	0.038990 	0.000887
-97.375000	-0.001849	-3.245833	3.243984	0.039007 	0.000887
-97.350000	-0.001834	-3.245000	3.243166	0.039024 	0.000887
-97.325000	-0.001819	-3.244167	3.242348	0.039041 	0.000887
-97.300000	-0.001804	-3.243333	3.241529	0.039058 	0.000887
-97.275000	-0.001789	-3.242500	3.240711	0.039075 	0.000887
-97.250000	-0.001774	-3.241667	3.239893	0.039092 	0.000887
-97.225000	-0.001759	-3.240833	3.239074	0.039109 	0.000887
-97.200000	-0.001745	-3.240000	3.238255	0.039126 	0.000888
-97.175000	-0.001730	-3.239167	3.237437	0.039143 	0.000888
-97.150000	-0.001715	-3.238333	3.236618	0.039159 	0.000888
-97.125000	-0.001700	-3.237500	3.235800	0.039176 	0.000888
-97.100000	-0.001685	-3.236667	3.234982	0.039193 	0.000888
-97.075000	-0.001670	-3.235833	3.234163	0.039210 	0.000888
-97.050000	-0.001655	-3.235000	3.233345	0.039226 	0.000888
-97.025000	-0.001640	-3.234167	3.232527	0.039243 	0.000888
-97.000000	-0.001625	-3.233333	3.231708	0.039259 	0.000888
-96.975000	-0.001610	-3.232500	3.230890	0.039276 	0.000889
-96.950000	-0.001595	-3.231667	3.230072	0.039292 	0.000889
-96.925000	-0.001580	-3.230833	3.229253	0.039309 	0.000889
-96.900000	-0.001565	-3.230000	3.228435	0.039325 	0.000889
-96.875000	-0.001550	-3.229167	3.227617	0.039342 	0.000889
-96.850000	-0.001536	-3.228333	3.226797	0.039358 	0.000889
-96.825000	-0.001521	-3.227500	3.225979	0.039374 	0.000889
-96.800000	-0.001506	-3.226667	3.225161	0.039390 	0.000889
-96.775000	-0.001491	-3.225833	3.224342	0.039407 	0.000889
-96.750000	-0.001476	-3.225000	3.223524	0.039423 	0.000890
-96.725000	-0.001461	-3.224167	3.222706	0.039439 	0.000890
-96.700000	-0.001446	-3.223333	3.221887	0.039455 	0.000890
-96.675000	-0.001430	-3.222500	3.221070	0.039471 	0.000890
-96.650000	-0.001415	-3.221667	3.220252	0.039487 	0.000890
-96.625000	-0.001400	-3.220833	3.219433	0.039503 	0.000890
-96.600000	-0.001385	-3.220000	3.218615	0.039519 	0.000890
-96.575000	-0.001370	-3.219167	3.217797	0.039535 	0.000890
-96.550000	-0.001355	-3.218333	3.216978	0.039551 	0.000890
-96.525000	-0.001340	-3.217500	3.216160	0.039566 	0.000891
-96.500000	-0.001325	-3.216667	3.215342	0.039582 	0.000891
-96.475000	-0.001310	-3.215833	3.214523	0.039598 	0.000891
-96.450000	-0.001295	-3.215000	3.213705	0.039613 	0.000891
-96.425000	-0.001280	-3.214167	3.212887	0.039629 	0.000891
-96.400000	-0.001265	-3.213333	3.212068	0.039645 	0.000891
-96.375000	-0.001250	-3.212500	3.211250	0.039660 	0.000891
-96.350000	-0.001235	-3.211667	3.210432	0.039676 	0.000891
-96.325000	-0.001220	-3.210833	3.209613	0.039691 	0.000892
-96.300000	-0.001204	-3.210000	3.208796	0.039707 	0.000892
-96.275000	-0.001189	-3.209167	3.207978	0.039722 	0.000892
-96.250000	-0.001174	-3.208333	3.207159	0.039737 	0.000892
-96.225000	-0.001159	-3.207500	3.206341	0.039753 	0.000892
-96.200000	-0.001144	-3.206667	3.205523	0.039768 	0.000892
-96.175000	-0.001129	-3.205833	3.204704	0.039783 	0.000892
-96.150000	-0.001114	-3.205000	3.203886	0.039798 	0.000892
-96.125000	-0.001098	-3.204167	3.203069	0.039814 	0.000892
-96.100000	-0.001083	-3.203333	3.202250	0.039829 	0.000893
-96.075000	-0.001068	-3.202500	3.201432	0.039844 	0.000893
-96.050000	-0.001053	-3.201667	3.200614	0.039859 	0.000893
-96.025000	-0.001038	-3.200833	3.199795	0.039874 	0.000893
-96.000000	-0.001023	-3.200000	3.198977	0.039889 	0.000893
-95.975000	-0.001007	-3.199167	3.198160	0.039904 	0.000893
-95.950000	-0.000992	-3.198333	3.197341	0.039919 	0.000893
-95.925000	-0.000977	-3.197500	3.196523	0.039933 	0.000893
-95.900000	-0.000962	-3.196667	3.195705	0.039948 	0.000893
-95.875000	-0.000947	-3.195833	3.194886	0.039963 	0.000894
-95.850000	-0.000931	-3.195000	3.194069	0.039978 	0.000894
-95.825000	-0.000916	-3.194167	3.193251	0.039992 	0.000894
-95.800000	-0.000901	-3.193333	3.192432	0.040007 	0.000894
-95.775000	-0.000886	-3.192500	3.191614	0.040021 	0.000894
-95.750000	-0.000870	-3.191667	3.190797	0.040036 	0.000894
-95.725000	-0.000855	-3.190833	3.189978	0.040050 	0.000894
-95.700000	-0.000840	-3.190000	3.189160	0.040065 	0.000894
-95.675000	-0.000825	-3.189167	3.188342	0.040079 	0.000894
-95.650000	-0.000809	-3.188333	3.187524	0.040094 	0.000895
-95.625000	-0.000794	-3.187500	3.186706	0.040108 	0.000895
-95.600000	-0.000779	-3.186667	3.185888	0.040122 	0.000895
-95.575000	-0.000763	-3.185833	3.185070	0.040137 	0.000895
-95.550000	-0.000748	-3.185000	3.184252	0.040151 	0.000895
-95.525000	-0.000733	-3.184167	3.183434	0.040165 	0.000895
-95.500000	-0.000718	-3.183333	3.182615	0.040179 	0.000895
-95.475000	-0.000702	-3.182500	3.181798	0.040193 	0.000895
-95.450000	-0.000687	-3.181667	3.180980	0.040207 	0.000896
-95.425000	-0.000672	-3.180833	3.180161	0.040221 	0.000896
-95.400000	-0.000656	-3.180000	3.179344	0.040235 	0.000896
-95.375000	-0.000641	-3.179167	3.178526	0.040249 	0.000896
-95.350000	-0.000626	-3.178333	3.177707	0.040263 	0.000896
-95.325000	-0.000610	-3.177500	3.176890	0.040277 	0.000896
-95.300000	-0.000595	-3.176667	3.176072	0.040290 	0.000896
-95.275000	-0.000580	-3.175833	3.175253	0.040304 	0.000896
-95.250000	-0.000564	-3.175000	3.174436	0.040318 	0.000896
-95.225000	-0.000549	-3.174167	3.173618	0.040332 	0.000897
-95.200000	-0.000534	-3.173333	3.172799	0.040345 	0.000897
-95.175000	-0.000518	-3.172500	3.171982	0.040359 	0.000897
-95.150000	-0.000503	-3.171667	3.171164	0.040372 	0.000897
-95.125000	-0.000487	-3.170833	3.170346	0.040386 	0.000897
-95.100000	-0.000472	-3.170000	3.169528	0.040399 	0.000897
-95.075000	-0.000457	-3.169167	3.168710	0.040413 	0.000897
-95.050000	-0.000441	-3.168333	3.167892	0.040426 	0.000897
-95.025000	-0.000426	-3.167500	3.167074	0.040439 	0.000897
-95.000000	-0.000410	-3.166667	3.166257	0.040452 	0.000898
-94.975000	-0.000395	-3.165833	3.165438	0.040466 	0.000898
-94.950000	-0.000380	-3.165000	3.164620	0.040479 	0.000898
-94.925000	-0.000364	-3.164167	3.163803	0.040492 	0.000898
-94.900000	-0.000349	-3.163333	3.162984	0.040505 	0.000898
-94.875000	-0.000333	-3.162500	3.162167	0.040518 	0.000898
-94.850000	-0.000318	-3.161667	3.161349	0.040531 	0.000898
-94.825000	-0.000302	-3.160833	3.160531	0.040544 	0.000898
-94.800000	-0.000287	-3.160000	3.159713	0.040557 	0.000899
-94.775000	-0.000272	-3.159167	3.158895	0.040570 	0.000899
-94.750000	-0.000256	-3.158333	3.158077	0.040583 	0.000899
-94.725000	-0.000241	-3.157500	3.157259	0.040595 	0.000899
-94.700000	-0.000225	-3.156667	3.156442	0.040608 	0.000899
-94.675000	-0.000210	-3.155833	3.155623	0.040621 	0.000899
-94.650000	-0.000194	-3.155000	3.154806	0.040634 	0.000899
-94.625000	-0.000179	-3.154167	3.153988	0.040646 	0.000899
-94.600000	-0.000163	-3.153333	3.153170	0.040659 	0.000899
-94.575000	-0.000148	-3.152500	3.152352	0.040671 	0.000900
-94.550000	-0.000132	-3.151667	3.151535	0.040684 	0.000900
-94.525000	-0.000117	-3.150833	3.150716	0.040696 	0.000900
-94.500000	-0.000101	-3.150000	3.149899	0.040709 	0.000900
-94.475000	-0.000086	-3.149167	3.149081	0.040721 	0.000900
-94.450000	-0.000070	-3.148333	3.148263	0.040733 	0.000900
-94.425000	-0.000055	-3.147500	3.147445	0.040746 	0.000900
-94.400000	-0.000039	-3.146667	3.146628	0.040758 	0.000900
-94.375000	-0.000024	-3.145833	3.145809	0.040770 	0.000901
-94.350000	-0.000008	-3.145000	3.144992	0.040782 	0.000901
-94.325000	0.000007	-3.144167	3.144174	0.040794 	0.000901
-94.300000	0.000023	-3.143333	3.143356	0.040806 	0.000901
-94.275000	0.000039	-3.142500	3.142539	0.040818 	0.000901
-94.250000	0.000054	-3.141667	3.141721	0.040830 	0.000901
-94.225000	0.000070	-3.140833	3.140903	0.040842 	0.000901
-94.200000	0.000085	-3.140000	3.140085	0.040854 	0.000901
-94.175000	0.000101	-3.139167	3.139268	0.040866 	0.000901
-94.150000	0.000116	-3.138333	3.138449	0.040877 	0.000902
-94.125000	0.000132	-3.137500	3.137632	0.040889 	0.000902
-94.100000	0.000148	-3.136667	3.136815	0.040901 	0.000902
-94.075000	0.000163	-3.135833	3.135996	0.040912 	0.000902
-94.050000	0.000179	-3.135000	3.135179	0.040924 	0.000902
-94.025000	0.000194	-3.134167	3.134361	0.040936 	0.000902
-94.000000	0.000210	-3.133333	3.133543	0.040947 	0.000902
-93.975000	0.000226	-3.132500	3.132726	0.040959 	0.000902
-93.950000	0.000241	-3.131667	3.131908	0.040970 	0.000903
-93.925000	0.000257	-3.130833	3.131090	0.040981 	0.000903
-93.900000	0.000272	-3.130000	3.130272	0.040993 	0.000903
-93.875000	0.000288	-3.129167	3.129455	0.041004 	0.000903
-93.850000	0.000304	-3.128333	3.128637	0.041015 	0.000903
-93.825000	0.000319	-3.127500	3.127819	0.041026 	0.000903
-93.800000	0.000335	-3.126667	3.127002	0.041037 	0.000903
-93.775000	0.000351	-3.125833	3.126184	0.041049 	0.000903
-93.750000	0.000366	-3.125000	3.125366	0.041060 	0.000903
-93.725000	0.000382	-3.124167	3.124549	0.041071 	0.000904
-93.700000	0.000398	-3.123333	3.123731	0.041082 	0.000904
-93.675000	0.000413	-3.122500	3.122913	0.041092 	0.000904
-93.650000	0.000429	-3.121667	3.122096	0.041103 	0.000904
-93.625000	0.000445	-3.120833	3.121278	0.041114 	0.000904
-93.600000	0.000460	-3.120000	3.120460	0.041125 	0.000904
-93.575000	0.000476	-3.119167	3.119643	0.041136 	0.000904
-93.550000	0.000492	-3.118333	3.118825	0.041146 	0.000904
-93.525000	0.000507	-3.117500	3.118007	0.041157 	0.000905
-93.500000	0.000523	-3.116667	3.117190	0.041167 	0.000905
-93.475000	0.000539	-3.115833	3.116372	0.041178 	0.000905
-93.450000	0.000554	-3.115000	3.115554	0.041188 	0.000905
-93.425000	0.000570	-3.114167	3.114737	0.041199 	0.000905
-93.400000	0.000586	-3.113333	3.113919	0.041209 	0.000905
-93.375000	0.000601	-3.112500	3.113101	0.041220 	0.000905
-93.350000	0.000617	-3.111667	3.112284	0.041230 	0.000905
-93.325000	0.000633	-3.110833	3.111466	0.041240 	0.000905
-93.300000	0.000649	-3.110000	3.110649	0.041250 	0.000906
-93.275000	0.000664	-3.109167	3.109831	0.041261 	0.000906
-93.250000	0.000680	-3.108333	3.109013	0.041271 	0.000906
-93.225000	0.000696	-3.107500	3.108196	0.041281 	0.000906
-93.200000	0.000712	-3.106667	3.107379	0.041291 	0.000906
-93.175000	0.000727	-3.105833	3.106560	0.041301 	0.000906
-93.150000	0.000743	-3.105000	3.105743	0.041311 	0.000906
-93.125000	0.000759	-3.104167	3.104926	0.041320 	0.000906
-93.100000	0.000775	-3.103333	3.104108	0.041330 	0.000907
-93.075000	0.000790	-3.102500	3.103290	0.041340 	0.000907
-93.050000	0.000806	-3.101667	3.102473	0.041350 	0.000907
-93.025000	0.000822	-3.100833	3.101655	0.041359 	0.000907
-93.000000	0.000838	-3.100000	3.100838	0.041369 	0.000907
-92.975000	0.000854	-3.099167	3.100021	0.041379 	0.000907
-92.950000	0.000869	-3.098333	3.099202	0.041388 	0.000907
-92.925000	0.000885	-3.097500	3.098385	0.041398 	0.000907
-92.900000	0.000901	-3.096667	3.097568	0.041407 	0.000907
-92.875000	0.000917	-3.095833	3.096750	0.041416 	0.000908
-92.850000	0.000933	-3.095000	3.095933	0.041426 	0.000908
-92.825000	0.000948	-3.094167	3.095115	0.041435 	0.000908
-92.800000	0.000964	-3.093333	3.094297	0.041444 	0.000908
-92.775000	0.000980	-3.092500	3.093480	0.041453 	0.000908
-92.750000	0.000996	-3.091667	3.092663	0.041463 	0.000908
-92.725000	0.001012	-3.090833	3.091845	0.041472 	0.000908
-92.700000	0.001028	-3.090000	3.091028	0.041481 	0.000908
-92.675000	0.001043	-3.089167	3.090210	0.041490 	0.000909
-92.650000	0.001059	-3.088333	3.089392	0.041499 	0.000909
-92.625000	0.001075	-3.087500	3.088575	0.041508 	0.000909
-92.600000	0.001091	-3.086667	3.087758	0.041516 	0.000909
-92.575000	0.001107	-3.085833	3.086940	0.041525 	0.000909
-92.550000	0.001123	-3.085000	3.086123	0.041534 	0.000909
-92.525000	0.001139	-3.084167	3.085306	0.041543 	0.000909
-92.500000	0.001154	-3.083333	3.084487	0.041551 	0.000909
-92.475000	0.001170	-3.082500	3.083670	0.041560 	0.000910
-92.450000	0.001186	-3.081667	3.082853	0.041568 	0.000910
-92.425000	0.001202	-3.080833	3.082035	0.041577 	0.000910
-92.400000	0.001218	-3.080000	3.081218	0.041585 	0.000910
-92.375000	0.001234	-3.079167	3.080401	0.041594 	0.000910
-92.350000	0.001250	-3.078333	3.079583	0.041602 	0.000910
-92.325000	0.001266	-3.077500	3.078766	0.041610 	0.000910
-92.300000	0.001282	-3.076667	3.077949	0.041618 	0.000910
-92.275000	0.001297	-3.075833	3.077130	0.041627 	0.000911
-92.250000	0.001313	-3.075000	3.076313	0.041635 	0.000911
-92.225000	0.001329	-3.074167	3.075496	0.041643 	0.000911
-92.200000	0.001345	-3.073333	3.074678	0.041651 	0.000911
-92.175000	0.001361	-3.072500	3.073861	0.041659 	0.000911
-92.150000	0.001377	-3.071667	3.073044	0.041667 	0.000911
-92.125000	0.001393	-3.070833	3.072226	0.041675 	0.000911
-92.100000	0.001409	-3.070000	3.071409	0.041682 	0.000911
-92.075000	0.001425	-3.069167	3.070592	0.041690 	0.000911
-92.050000	0.001441	-3.068333	3.069774	0.041698 	0.000912
-92.025000	0.001457	-3.067500	3.068957	0.041706 	0.000912
-92.000000	0.001473	-3.066667	3.068140	0.041713 	0.000912
-91.975000	0.001489	-3.065833	3.067322	0.041721 	0.000912
-91.950000	0.001505	-3.065000	3.066505	0.041728 	0.000912
-91.925000	0.001521	-3.064167	3.065688	0.041736 	0.000912
-91.900000	0.001537	-3.063333	3.064870	0.041743 	0.000912
-91.875000	0.001553	-3.062500	3.064053	0.041750 	0.000912
-91.850000	0.001569	-3.061667	3.063236	0.041758 	0.000913
-91.825000	0.001585	-3.060833	3.062418	0.041765 	0.000913
-91.800000	0.001601	-3.060000	3.061601	0.041772 	0.000913
-91.775000	0.001617	-3.059167	3.060784	0.041779 	0.000913
-91.750000	0.001633	-3.058333	3.059966	0.041786 	0.000913
-91.725000	0.001649	-3.057500	3.059149	0.041793 	0.000913
-91.700000	0.001665	-3.056667	3.058332	0.041800 	0.000913
-91.675000	0.001681	-3.055833	3.057514	0.041807 	0.000913
-91.650000	0.001697	-3.055000	3.056697	0.041814 	0.000914
-91.625000	0.001713	-3.054167	3.055880	0.041821 	0.000914
-91.600000	0.001729	-3.053333	3.055062	0.041828 	0.000914
-91.575000	0.001745	-3.052500	3.054245	0.041834 	0.000914
-91.550000	0.001761	-3.051667	3.053428	0.041841 	0.000914
-91.525000	0.001777	-3.050833	3.052610	0.041847 	0.000914
-91.500000	0.001793	-3.050000	3.051793	0.041854 	0.000914
-91.475000	0.001809	-3.049167	3.050976	0.041860 	0.000914
-91.450000	0.001826	-3.048333	3.050159	0.041867 	0.000915
-91.425000	0.001842	-3.047500	3.049342	0.041873 	0.000915
-91.400000	0.001858	-3.046667	3.048525	0.041880 	0.000915
-91.375000	0.001874	-3.045833	3.047707	0.041886 	0.000915
-91.350000	0.001890	-3.045000	3.046890	0.041892 	0.000915
-91.325000	0.001906	-3.044167	3.046073	0.041898 	0.000915
-91.300000	0.001922	-3.043333	3.045255	0.041904 	0.000915
-91.275000	0.001938	-3.042500	3.044438	0.041910 	0.000915
-91.250000	0.001954	-3.041667	3.043621	0.041916 	0.000916
-91.225000	0.001971	-3.040833	3.042804	0.041922 	0.000916
-91.200000	0.001987	-3.040000	3.041987	0.041928 	0.000916
-91.175000	0.002003	-3.039167	3.041170	0.041934 	0.000916
-91.150000	0.002019	-3.038333	3.040352	0.041940 	0.000916
-91.125000	0.002035	-3.037500	3.039535	0.041945 	0.000916
-91.100000	0.002051	-3.036667	3.038718	0.041951 	0.000916
-91.075000	0.002067	-3.035833	3.037900	0.041956 	0.000916
-91.050000	0.002084	-3.035000	3.037084	0.041962 	0.000916
-91.025000	0.002100	-3.034167	3.036267	0.041967 	0.000917
-91.000000	0.002116	-3.033333	3.035449	0.041973 	0.000917
-90.975000	0.002132	-3.032500	3.034632	0.041978 	0.000917
-90.950000	0.002148	-3.031667	3.033815	0.041983 	0.000917
-90.925000	0.002165	-3.030833	3.032998	0.041989 	0.000917
-90.900000	0.002181	-3.030000	3.032181	0.041994 	0.000917
-90.875000	0.002197	-3.029167	3.031364	0.041999 	0.000917
-90.850000	0.002213	-3.028333	3.030546	0.042004 	0.000917
-90.825000	0.002229	-3.027500	3.029729	0.042009 	0.000918
-90.800000	0.002246	-3.026667	3.028913	0.042014 	0.000918
-90.775000	0.002262	-3.025833	3.028095	0.042019 	0.000918
-90.750000	0.002278	-3.025000	3.027278	0.042024 	0.000918
-90.725000	0.002294	-3.024167	3.026461	0.042028 	0.000918
-90.700000	0.002311	-3.023333	3.025644	0.042033 	0.000918
-90.675000	0.002327	-3.022500	3.024827	0.042038 	0.000918
-90.650000	0.002343	-3.021667	3.024010	0.042042 	0.000918
-90.625000	0.002359	-3.020833	3.023192	0.042047 	0.000919
-90.600000	0.002376	-3.020000	3.022376	0.042051 	0.000919
-90.575000	0.002392	-3.019167	3.021559	0.042056 	0.000919
-90.550000	0.002408	-3.018333	3.020741	0.042060 	0.000919
-90.525000	0.002425	-3.017500	3.019925	0.042064 	0.000919
-90.500000	0.002441	-3.016667	3.019108	0.042068 	0.000919
-90.475000	0.002457	-3.015833	3.018290	0.042073 	0.000919
-90.450000	0.002474	-3.015000	3.017474	0.042077 	0.000919
-90.425000	0.002490	-3.014167	3.016657	0.042081 	0.000920
-90.400000	0.002506	-3.013333	3.015839	0.042085 	0.000920
-90.375000	0.002522	-3.012500	3.015022	0.042089 	0.000920
-90.350000	0.002539	-3.011667	3.014206	0.042092 	0.000920
-90.325000	0.002555	-3.010833	3.013388	0.042096 	0.000920
-90.300000	0.002572	-3.010000	3.012572	0.042100 	0.000920
-90.275000	0.002588	-3.009167	3.011755	0.042104 	0.000920
-90.250000	0.002604	-3.008333	3.010937	0.042107 	0.000920
-90.225000	0.002621	-3.007500	3.010121	0.042111 	0.000921
-90.200000	0.002637	-3.006667	3.009304	0.042114 	0.000921
-90.175000	0.002653	-3.005833	3.008486	0.042118 	0.000921
-90.150000	0.002670	-3.005000	3.007670	0.042121 	0.000921
-90.125000	0.002686	-3.004167	3.006853	0.042124 	0.000921
-90.100000	0.002703	-3.003333	3.006036	0.042127 	0.000921
-90.075000	0.002719	-3.002500	3.005219	0.042131 	0.000921
-90.050000	0.002735	-3.001667	3.004402	0.042134 	0.000921
-90.025000	0.002752	-3.000833	3.003585	0.042137 	0.000922
-90.000000	0.002768	-3.000000	3.002768	0.042140 	0.000922
-89.975000	0.002785	-2.999167	3.001952	0.042143 	0.000922
-89.950000	0.002801	-2.998333	3.001134	0.042146 	0.000922
-89.925000	0.002818	-2.997500	3.000318	0.042148 	0.000922
-89.900000	0.002834	-2.996667	2.999501	0.042151 	0.000922
-89.875000	0.002850	-2.995833	2.998683	0.042154 	0.000922
-89.850000	0.002867	-2.995000	2.997867	0.042156 	0.000922
-89.825000	0.002883	-2.994167	2.997050	0.042159 	0.000923
-89.800000	0.002900	-2.993333	2.996233	0.042161 	0.000923
-89.775000	0.002916	-2.992500	2.995416	0.042164 	0.000923
-89.750000	0.002933	-2.991667	2.994600	0.042166 	0.000923
-89.725000	0.002949	-2.990833	2.993782	0.042168 	0.000923
-89.700000	0.002966	-2.990000	2.992966	0.042171 	0.000923
-89.675000	0.002982	-2.989167	2.992149	0.042173 	0.000923
-89.650000	0.002999	-2.988333	2.991332	0.042175 	0.000923
-89.625000	0.003015	-2.987500	2.990515	0.042177 	0.000924
-89.600000	0.003032	-2.986667	2.989699	0.042179 	0.000924
-89.575000	0.003048	-2.985833	2.988881	0.042181 	0.000924
-89.550000	0.003065	-2.985000	2.988065	0.042183 	0.000924
-89.525000	0.003082	-2.984167	2.987249	0.042185 	0.000924
-89.500000	0.003098	-2.983333	2.986431	0.042186 	0.000924
-89.475000	0.003115	-2.982500	2.985615	0.042188 	0.000924
-89.450000	0.003131	-2.981667	2.984798	0.042190 	0.000924
-89.425000	0.003148	-2.980833	2.983981	0.042191 	0.000925
-89.400000	0.003164	-2.980000	2.983164	0.042193 	0.000925
-89.375000	0.003181	-2.979167	2.982348	0.042194 	0.000925
-89.350000	0.003197	-2.978333	2.981530	0.042195 	0.000925
-89.325000	0.003214	-2.977500	2.980714	0.042197 	0.000925
-89.300000	0.003231	-2.976667	2.979898	0.042198 	0.000925
-89.275000	0.003247	-2.975833	2.979080	0.042199 	0.000925
-89.250000	0.003264	-2.975000	2.978264	0.042200 	0.000925
-89.225000	0.003280	-2.974167	2.977447	0.042201 	0.000926
-89.200000	0.003297	-2.973333	2.976630	0.042202 	0.000926
-89.175000	0.003314	-2.972500	2.975814	0.042203 	0.000926
-89.150000	0.003330	-2.971667	2.974997	0.042204 	0.000926
-89.125000	0.003347	-2.970833	2.974180	0.042205 	0.000926
-89.100000	0.003364	-2.970000	2.973364	0.042205 	0.000926
-89.075000	0.003380	-2.969167	2.972547	0.042206 	0.000926
-89.050000	0.003397	-2.968333	2.971730	0.042207 	0.000927
-89.025000	0.003414	-2.967500	2.970914	0.042207 	0.000927
-89.000000	0.003430	-2.966667	2.970097	0.042207 	0.000927
-88.975000	0.003447	-2.965833	2.969280	0.042208 	0.000927
-88.950000	0.003464	-2.965000	2.968464	0.042208 	0.000927
-88.925000	0.003480	-2.964167	2.967647	0.042208 	0.000927
-88.900000	0.003497	-2.963333	2.966830	0.042209 	0.000927
-88.875000	0.003514	-2.962500	2.966014	0.042209 	0.000927
-88.850000	0.003530	-2.961667	2.965197	0.042209 	0.000928
-88.825000	0.003547	-2.960833	2.964380	0.042209 	0.000928
-88.800000	0.003564	-2.960000	2.963564	0.042209 	0.000928
-88.775000	0.003580	-2.959167	2.962747	0.042209 	0.000928
-88.750000	0.003597	-2.958333	2.961930	0.042209 	0.000928
-88.725000	0.003614	-2.957500	2.961114	0.042208 	0.000928
-88.700000	0.003630	-2.956667	2.960297	0.042208 	0.000928
-88.675000	0.003647	-2.955833	2.959480	0.042208 	0.000928
-88.650000	0.003664	-2.955000	2.958664	0.042207 	0.000929
-88.625000	0.003681	-2.954167	2.957848	0.042207 	0.000929
-88.600000	0.003697	-2.953333	2.957030	0.042206 	0.000929
-88.575000	0.003714	-2.952500	2.956214	0.042205 	0.000929
-88.550000	0.003731	-2.951667	2.955398	0.042205 	0.000929
-88.525000	0.003747	-2.950833	2.954580	0.042204 	0.000929
-88.500000	0.003764	-2.950000	2.953764	0.042203 	0.000929
-88.475000	0.003781	-2.949167	2.952948	0.042202 	0.000929
-88.450000	0.003798	-2.948333	2.952131	0.042201 	0.000930
-88.425000	0.003814	-2.947500	2.951314	0.042200 	0.000930
-88.400000	0.003831	-2.946667	2.950498	0.042199 	0.000930
-88.375000	0.003848	-2.945833	2.949681	0.042198 	0.000930
-88.350000	0.003865	-2.945000	2.948865	0.042197 	0.000930
-88.325000	0.003882	-2.944167	2.948049	0.042196 	0.000930
-88.300000	0.003898	-2.943333	2.947231	0.042194 	0.000930
-88.275000	0.003915	-2.942500	2.946415	0.042193 	0.000930
-88.250000	0.003932	-2.941667	2.945599	0.042191 	0.000931
-88.225000	0.003949	-2.940833	2.944782	0.042190 	0.000931
-88.200000	0.003965	-2.940000	2.943965	0.042188 	0.000931
-88.175000	0.003982	-2.939167	2.943149	0.042187 	0.000931
-88.150000	0.003999	-2.938333	2.942332	0.042185 	0.000931
-88.125000	0.004016	-2.937500	2.941516	0.042183 	0.000931
-88.100000	0.004033	-2.936667	2.940700	0.042181 	0.000931
-88.075000	0.004049	-2.935833	2.939882	0.042180 	0.000932
-88.050000	0.004066	-2.935000	2.939066	0.042178 	0.000932
-88.025000	0.004083	-2.934167	2.938250	0.042176 	0.000932
-88.000000	0.004100	-2.933333	2.937433	0.042173 	0.000932
-87.975000	0.004117	-2.932500	2.936617	0.042171 	0.000932
-87.950000	0.004133	-2.931667	2.935800	0.042169 	0.000932
-87.925000	0.004150	-2.930833	2.934983	0.042167 	0.000932
-87.900000	0.004167	-2.930000	2.934167	0.042164 	0.000932
-87.875000	0.004184	-2.929167	2.933351	0.042162 	0.000933
-87.850000	0.004201	-2.928333	2.932534	0.042160 	0.000933
-87.825000	0.004217	-2.927500	2.931717	0.042157 	0.000933
-87.800000	0.004234	-2.926667	2.930901	0.042154 	0.000933
-87.775000	0.004251	-2.925833	2.930084	0.042152 	0.000933
-87.750000	0.004268	-2.925000	2.929268	0.042149 	0.000933
-87.725000	0.004285	-2.924167	2.928452	0.042146 	0.000933
-87.700000	0.004302	-2.923333	2.927635	0.042144 	0.000933
-87.675000	0.004318	-2.922500	2.926818	0.042141 	0.000934
-87.650000	0.004335	-2.921667	2.926002	0.042138 	0.000934
-87.625000	0.004352	-2.920833	2.925185	0.042135 	0.000934
-87.600000	0.004369	-2.920000	2.924369	0.042132 	0.000934
-87.575000	0.004386	-2.919167	2.923553	0.042128 	0.000934
-87.550000	0.004403	-2.918333	2.922736	0.042125 	0.000934
-87.525000	0.004419	-2.917500	2.921919	0.042122 	0.000934
-87.500000	0.004436	-2.916667	2.921103	0.042119 	0.000935
-87.475000	0.004453	-2.915833	2.920286	0.042115 	0.000935
-87.450000	0.004470	-2.915000	2.919470	0.042112 	0.000935
-87.425000	0.004487	-2.914167	2.918654	0.042108 	0.000935
-87.400000	0.004504	-2.913333	2.917837	0.042105 	0.000935
-87.375000	0.004520	-2.912500	2.917020	0.042101 	0.000935
-87.350000	0.004537	-2.911667	2.916204	0.042097 	0.000935
-87.325000	0.004554	-2.910833	2.915387	0.042093 	0.000935
-87.300000	0.004571	-2.910000	2.914571	0.042090 	0.000936
-87.275000	0.004588	-2.909167	2.913755	0.042086 	0.000936
-87.250000	0.004605	-2.908333	2.912938	0.042082 	0.000936