TITLE="Tsunami Runup" 
VARIABLES=x,Z,Ksi,H,B,U 
ZONE I=4400, DATAPACKING=POINT
-100.000000 	-2.457200e-003 	-2.457200e-003 	3.330876e+000 	-3.333333e+000 	-4.094014e-002 
-99.975000 	-2.448482e-003 	-2.448482e-003 	3.330052e+000 	-3.332500e+000 	-4.096362e-002 
-99.950000 	-2.439758e-003 	-2.439758e-003 	3.329227e+000 	-3.331667e+000 	-4.098705e-002 
-99.925000 	-2.431028e-003 	-2.431028e-003 	3.328402e+000 	-3.330833e+000 	-4.101045e-002 
-99.900000 	-2.422292e-003 	-2.422292e-003 	3.327578e+000 	-3.330000e+000 	-4.103381e-002 
-99.875000 	-2.413549e-003 	-2.413549e-003 	3.326753e+000 	-3.329167e+000 	-4.105713e-002 
-99.850000 	-2.404800e-003 	-2.404800e-003 	3.325929e+000 	-3.328333e+000 	-4.108041e-002 
-99.825000 	-2.396045e-003 	-2.396045e-003 	3.325104e+000 	-3.327500e+000 	-4.110365e-002 
-99.800000 	-2.387283e-003 	-2.387283e-003 	3.324279e+000 	-3.326667e+000 	-4.112686e-002 
-99.775000 	-2.378515e-003 	-2.378515e-003 	3.323455e+000 	-3.325833e+000 	-4.115002e-002 
-99.750000 	-2.369741e-003 	-2.369741e-003 	3.322630e+000 	-3.325000e+000 	-4.117315e-002 
-99.725000 	-2.360961e-003 	-2.360961e-003 	3.321806e+000 	-3.324167e+000 	-4.119623e-002 
-99.700000 	-2.352175e-003 	-2.352175e-003 	3.320981e+000 	-3.323333e+000 	-4.121928e-002 
-99.675000 	-2.343382e-003 	-2.343382e-003 	3.320157e+000 	-3.322500e+000 	-4.124229e-002 
-99.650000 	-2.334583e-003 	-2.334583e-003 	3.319332e+000 	-3.321667e+000 	-4.126526e-002 
-99.625000 	-2.325778e-003 	-2.325778e-003 	3.318508e+000 	-3.320833e+000 	-4.128819e-002 
-99.600000 	-2.316966e-003 	-2.316966e-003 	3.317683e+000 	-3.320000e+000 	-4.131108e-002 
-99.575000 	-2.308149e-003 	-2.308149e-003 	3.316859e+000 	-3.319167e+000 	-4.133393e-002 
-99.550000 	-2.299325e-003 	-2.299325e-003 	3.316034e+000 	-3.318333e+000 	-4.135674e-002 
-99.525000 	-2.290495e-003 	-2.290495e-003 	3.315210e+000 	-3.317500e+000 	-4.137952e-002 
-99.500000 	-2.281659e-003 	-2.281659e-003 	3.314385e+000 	-3.316667e+000 	-4.140225e-002 
-99.475000 	-2.272817e-003 	-2.272817e-003 	3.313561e+000 	-3.315833e+000 	-4.142494e-002 
-99.450000 	-2.263969e-003 	-2.263969e-003 	3.312736e+000 	-3.315000e+000 	-4.144760e-002 
-99.425000 	-2.255115e-003 	-2.255115e-003 	3.311912e+000 	-3.314167e+000 	-4.147021e-002 
-99.400000 	-2.246254e-003 	-2.246254e-003 	3.311087e+000 	-3.313333e+000 	-4.149279e-002 
-99.375000 	-2.237388e-003 	-2.237388e-003 	3.310263e+000 	-3.312500e+000 	-4.151532e-002 
-99.350000 	-2.228515e-003 	-2.228515e-003 	3.309438e+000 	-3.311667e+000 	-4.153782e-002 
-99.325000 	-2.219636e-003 	-2.219636e-003 	3.308614e+000 	-3.310833e+000 	-4.156027e-002 
-99.300000 	-2.210751e-003 	-2.210751e-003 	3.307789e+000 	-3.310000e+000 	-4.158269e-002 
-99.275000 	-2.201860e-003 	-2.201860e-003 	3.306965e+000 	-3.309167e+000 	-4.160506e-002 
-99.250000 	-2.192963e-003 	-2.192963e-003 	3.306140e+000 	-3.308333e+000 	-4.162740e-002 
-99.225000 	-2.184060e-003 	-2.184060e-003 	3.305316e+000 	-3.307500e+000 	-4.164969e-002 
-99.200000 	-2.175151e-003 	-2.175151e-003 	3.304492e+000 	-3.306667e+000 	-4.167195e-002 
-99.175000 	-2.166236e-003 	-2.166236e-003 	3.303667e+000 	-3.305833e+000 	-4.169416e-002 
-99.150000 	-2.157315e-003 	-2.157315e-003 	3.302843e+000 	-3.305000e+000 	-4.171634e-002 
-99.125000 	-2.148388e-003 	-2.148388e-003 	3.302018e+000 	-3.304167e+000 	-4.173847e-002 
-99.100000 	-2.139455e-003 	-2.139455e-003 	3.301194e+000 	-3.303333e+000 	-4.176056e-002 
-99.075000 	-2.130516e-003 	-2.130516e-003 	3.300369e+000 	-3.302500e+000 	-4.178262e-002 
-99.050000 	-2.121571e-003 	-2.121571e-003 	3.299545e+000 	-3.301667e+000 	-4.180463e-002 
-99.025000 	-2.112620e-003 	-2.112620e-003 	3.298721e+000 	-3.300833e+000 	-4.182660e-002 
-99.000000 	-2.103663e-003 	-2.103663e-003 	3.297896e+000 	-3.300000e+000 	-4.184853e-002 
-98.975000 	-2.094700e-003 	-2.094700e-003 	3.297072e+000 	-3.299167e+000 	-4.187043e-002 
-98.950000 	-2.085732e-003 	-2.085732e-003 	3.296248e+000 	-3.298333e+000 	-4.189228e-002 
-98.925000 	-2.076757e-003 	-2.076757e-003 	3.295423e+000 	-3.297500e+000 	-4.191409e-002 
-98.900000 	-2.067776e-003 	-2.067776e-003 	3.294599e+000 	-3.296667e+000 	-4.193585e-002 
-98.875000 	-2.058790e-003 	-2.058790e-003 	3.293775e+000 	-3.295833e+000 	-4.195758e-002 
-98.850000 	-2.049798e-003 	-2.049798e-003 	3.292950e+000 	-3.295000e+000 	-4.197927e-002 
-98.825000 	-2.040799e-003 	-2.040799e-003 	3.292126e+000 	-3.294167e+000 	-4.200092e-002 
-98.800000 	-2.031795e-003 	-2.031795e-003 	3.291302e+000 	-3.293333e+000 	-4.202252e-002 
-98.775000 	-2.022785e-003 	-2.022785e-003 	3.290477e+000 	-3.292500e+000 	-4.204409e-002 
-98.750000 	-2.013769e-003 	-2.013769e-003 	3.289653e+000 	-3.291667e+000 	-4.206561e-002 
-98.725000 	-2.004748e-003 	-2.004748e-003 	3.288829e+000 	-3.290833e+000 	-4.208709e-002 
-98.700000 	-1.995720e-003 	-1.995720e-003 	3.288004e+000 	-3.290000e+000 	-4.210853e-002 
-98.675000 	-1.986687e-003 	-1.986687e-003 	3.287180e+000 	-3.289167e+000 	-4.212993e-002 
-98.650000 	-1.977648e-003 	-1.977648e-003 	3.286356e+000 	-3.288333e+000 	-4.215129e-002 
-98.625000 	-1.968603e-003 	-1.968603e-003 	3.285531e+000 	-3.287500e+000 	-4.217260e-002 
-98.600000 	-1.959552e-003 	-1.959552e-003 	3.284707e+000 	-3.286667e+000 	-4.219388e-002 
-98.575000 	-1.950495e-003 	-1.950495e-003 	3.283883e+000 	-3.285833e+000 	-4.221511e-002 
-98.550000 	-1.941433e-003 	-1.941433e-003 	3.283059e+000 	-3.285000e+000 	-4.223630e-002 
-98.525000 	-1.932365e-003 	-1.932365e-003 	3.282234e+000 	-3.284167e+000 	-4.225745e-002 
-98.500000 	-1.923291e-003 	-1.923291e-003 	3.281410e+000 	-3.283333e+000 	-4.227856e-002 
-98.475000 	-1.914212e-003 	-1.914212e-003 	3.280586e+000 	-3.282500e+000 	-4.229963e-002 
-98.450000 	-1.905127e-003 	-1.905127e-003 	3.279762e+000 	-3.281667e+000 	-4.232065e-002 
-98.425000 	-1.896036e-003 	-1.896036e-003 	3.278937e+000 	-3.280833e+000 	-4.234164e-002 
-98.400000 	-1.886939e-003 	-1.886939e-003 	3.278113e+000 	-3.280000e+000 	-4.236258e-002 
-98.375000 	-1.877837e-003 	-1.877837e-003 	3.277289e+000 	-3.279167e+000 	-4.238348e-002 
-98.350000 	-1.868729e-003 	-1.868729e-003 	3.276465e+000 	-3.278333e+000 	-4.240433e-002 
-98.325000 	-1.859615e-003 	-1.859615e-003 	3.275640e+000 	-3.277500e+000 	-4.242515e-002 
-98.300000 	-1.850496e-003 	-1.850496e-003 	3.274816e+000 	-3.276667e+000 	-4.244592e-002 
-98.275000 	-1.841371e-003 	-1.841371e-003 	3.273992e+000 	-3.275833e+000 	-4.246665e-002 
-98.250000 	-1.832240e-003 	-1.832240e-003 	3.273168e+000 	-3.275000e+000 	-4.248734e-002 
-98.225000 	-1.823104e-003 	-1.823104e-003 	3.272344e+000 	-3.274167e+000 	-4.250799e-002 
-98.200000 	-1.813962e-003 	-1.813962e-003 	3.271519e+000 	-3.273333e+000 	-4.252859e-002 
-98.175000 	-1.804815e-003 	-1.804815e-003 	3.270695e+000 	-3.272500e+000 	-4.254915e-002 
-98.150000 	-1.795662e-003 	-1.795662e-003 	3.269871e+000 	-3.271667e+000 	-4.256967e-002 
-98.125000 	-1.786503e-003 	-1.786503e-003 	3.269047e+000 	-3.270833e+000 	-4.259015e-002 
-98.100000 	-1.777339e-003 	-1.777339e-003 	3.268223e+000 	-3.270000e+000 	-4.261058e-002 
-98.075000 	-1.768169e-003 	-1.768169e-003 	3.267398e+000 	-3.269167e+000 	-4.263098e-002 
-98.050000 	-1.758994e-003 	-1.758994e-003 	3.266574e+000 	-3.268333e+000 	-4.265132e-002 
-98.025000 	-1.749813e-003 	-1.749813e-003 	3.265750e+000 	-3.267500e+000 	-4.267163e-002 
-98.000000 	-1.740627e-003 	-1.740627e-003 	3.264926e+000 	-3.266667e+000 	-4.269189e-002 
-97.975000 	-1.731435e-003 	-1.731435e-003 	3.264102e+000 	-3.265833e+000 	-4.271211e-002 
-97.950000 	-1.722238e-003 	-1.722238e-003 	3.263278e+000 	-3.265000e+000 	-4.273229e-002 
-97.925000 	-1.713035e-003 	-1.713035e-003 	3.262454e+000 	-3.264167e+000 	-4.275243e-002 
-97.900000 	-1.703827e-003 	-1.703827e-003 	3.261630e+000 	-3.263333e+000 	-4.277252e-002 
-97.875000 	-1.694613e-003 	-1.694613e-003 	3.260805e+000 	-3.262500e+000 	-4.279257e-002 
-97.850000 	-1.685394e-003 	-1.685394e-003 	3.259981e+000 	-3.261667e+000 	-4.281257e-002 
-97.825000 	-1.676169e-003 	-1.676169e-003 	3.259157e+000 	-3.260833e+000 	-4.283253e-002 
-97.800000 	-1.666939e-003 	-1.666939e-003 	3.258333e+000 	-3.260000e+000 	-4.285245e-002 
-97.775000 	-1.657703e-003 	-1.657703e-003 	3.257509e+000 	-3.259167e+000 	-4.287233e-002 
-97.750000 	-1.648462e-003 	-1.648462e-003 	3.256685e+000 	-3.258333e+000 	-4.289216e-002 
-97.725000 	-1.639216e-003 	-1.639216e-003 	3.255861e+000 	-3.257500e+000 	-4.291195e-002 
-97.700000 	-1.629964e-003 	-1.629964e-003 	3.255037e+000 	-3.256667e+000 	-4.293170e-002 
-97.675000 	-1.620707e-003 	-1.620707e-003 	3.254213e+000 	-3.255833e+000 	-4.295140e-002 
-97.650000 	-1.611444e-003 	-1.611444e-003 	3.253389e+000 	-3.255000e+000 	-4.297106e-002 
-97.625000 	-1.602176e-003 	-1.602176e-003 	3.252564e+000 	-3.254167e+000 	-4.299067e-002 
-97.600000 	-1.592903e-003 	-1.592903e-003 	3.251740e+000 	-3.253333e+000 	-4.301024e-002 
-97.575000 	-1.583624e-003 	-1.583624e-003 	3.250916e+000 	-3.252500e+000 	-4.302977e-002 
-97.550000 	-1.574340e-003 	-1.574340e-003 	3.250092e+000 	-3.251667e+000 	-4.304925e-002 
-97.525000 	-1.565051e-003 	-1.565051e-003 	3.249268e+000 	-3.250833e+000 	-4.306869e-002 
-97.500000 	-1.555757e-003 	-1.555757e-003 	3.248444e+000 	-3.250000e+000 	-4.308809e-002 
-97.475000 	-1.546457e-003 	-1.546457e-003 	3.247620e+000 	-3.249167e+000 	-4.310744e-002 
-97.450000 	-1.537152e-003 	-1.537152e-003 	3.246796e+000 	-3.248333e+000 	-4.312675e-002 
-97.425000 	-1.527841e-003 	-1.527841e-003 	3.245972e+000 	-3.247500e+000 	-4.314601e-002 
-97.400000 	-1.518526e-003 	-1.518526e-003 	3.245148e+000 	-3.246667e+000 	-4.316523e-002 
-97.375000 	-1.509205e-003 	-1.509205e-003 	3.244324e+000 	-3.245833e+000 	-4.318441e-002 
-97.350000 	-1.499879e-003 	-1.499879e-003 	3.243500e+000 	-3.245000e+000 	-4.320354e-002 
-97.325000 	-1.490547e-003 	-1.490547e-003 	3.242676e+000 	-3.244167e+000 	-4.322263e-002 
-97.300000 	-1.481211e-003 	-1.481211e-003 	3.241852e+000 	-3.243333e+000 	-4.324167e-002 
-97.275000 	-1.471869e-003 	-1.471869e-003 	3.241028e+000 	-3.242500e+000 	-4.326067e-002 
-97.250000 	-1.462522e-003 	-1.462522e-003 	3.240204e+000 	-3.241667e+000 	-4.327963e-002 
-97.225000 	-1.453170e-003 	-1.453170e-003 	3.239380e+000 	-3.240833e+000 	-4.329854e-002 
-97.200000 	-1.443813e-003 	-1.443813e-003 	3.238556e+000 	-3.240000e+000 	-4.331740e-002 
-97.175000 	-1.434450e-003 	-1.434450e-003 	3.237732e+000 	-3.239167e+000 	-4.333622e-002 
-97.150000 	-1.425083e-003 	-1.425083e-003 	3.236908e+000 	-3.238333e+000 	-4.335500e-002 
-97.125000 	-1.415710e-003 	-1.415710e-003 	3.236084e+000 	-3.237500e+000 	-4.337373e-002 
-97.100000 	-1.406332e-003 	-1.406332e-003 	3.235260e+000 	-3.236667e+000 	-4.339242e-002 
-97.075000 	-1.396949e-003 	-1.396949e-003 	3.234436e+000 	-3.235833e+000 	-4.341106e-002 
-97.050000 	-1.387561e-003 	-1.387561e-003 	3.233612e+000 	-3.235000e+000 	-4.342965e-002 
-97.025000 	-1.378168e-003 	-1.378168e-003 	3.232788e+000 	-3.234167e+000 	-4.344821e-002 
-97.000000 	-1.368770e-003 	-1.368770e-003 	3.231965e+000 	-3.233333e+000 	-4.346671e-002 
-96.975000 	-1.359367e-003 	-1.359367e-003 	3.231141e+000 	-3.232500e+000 	-4.348518e-002 
-96.950000 	-1.349958e-003 	-1.349958e-003 	3.230317e+000 	-3.231667e+000 	-4.350359e-002 
-96.925000 	-1.340545e-003 	-1.340545e-003 	3.229493e+000 	-3.230833e+000 	-4.352196e-002 
-96.900000 	-1.331127e-003 	-1.331127e-003 	3.228669e+000 	-3.230000e+000 	-4.354029e-002 
-96.875000 	-1.321704e-003 	-1.321704e-003 	3.227845e+000 	-3.229167e+000 	-4.355857e-002 
-96.850000 	-1.312275e-003 	-1.312275e-003 	3.227021e+000 	-3.228333e+000 	-4.357681e-002 
-96.825000 	-1.302842e-003 	-1.302842e-003 	3.226197e+000 	-3.227500e+000 	-4.359500e-002 
-96.800000 	-1.293404e-003 	-1.293404e-003 	3.225373e+000 	-3.226667e+000 	-4.361314e-002 
-96.775000 	-1.283960e-003 	-1.283960e-003 	3.224549e+000 	-3.225833e+000 	-4.363124e-002 
-96.750000 	-1.274512e-003 	-1.274512e-003 	3.223725e+000 	-3.225000e+000 	-4.364930e-002 
-96.725000 	-1.265059e-003 	-1.265059e-003 	3.222902e+000 	-3.224167e+000 	-4.366731e-002 
-96.700000 	-1.255601e-003 	-1.255601e-003 	3.222078e+000 	-3.223333e+000 	-4.368527e-002 
-96.675000 	-1.246138e-003 	-1.246138e-003 	3.221254e+000 	-3.222500e+000 	-4.370319e-002 
-96.650000 	-1.236670e-003 	-1.236670e-003 	3.220430e+000 	-3.221667e+000 	-4.372106e-002 
-96.625000 	-1.227197e-003 	-1.227197e-003 	3.219606e+000 	-3.220833e+000 	-4.373888e-002 
-96.600000 	-1.217720e-003 	-1.217720e-003 	3.218782e+000 	-3.220000e+000 	-4.375666e-002 
-96.575000 	-1.208237e-003 	-1.208237e-003 	3.217958e+000 	-3.219167e+000 	-4.377440e-002 
-96.550000 	-1.198750e-003 	-1.198750e-003 	3.217135e+000 	-3.218333e+000 	-4.379208e-002 
-96.525000 	-1.189258e-003 	-1.189258e-003 	3.216311e+000 	-3.217500e+000 	-4.380973e-002 
-96.500000 	-1.179760e-003 	-1.179760e-003 	3.215487e+000 	-3.216667e+000 	-4.382732e-002 
-96.475000 	-1.170259e-003 	-1.170259e-003 	3.214663e+000 	-3.215833e+000 	-4.384487e-002 
-96.450000 	-1.160752e-003 	-1.160752e-003 	3.213839e+000 	-3.215000e+000 	-4.386237e-002 
-96.425000 	-1.151241e-003 	-1.151241e-003 	3.213015e+000 	-3.214167e+000 	-4.387983e-002 
-96.400000 	-1.141724e-003 	-1.141724e-003 	3.212192e+000 	-3.213333e+000 	-4.389724e-002 
-96.375000 	-1.132203e-003 	-1.132203e-003 	3.211368e+000 	-3.212500e+000 	-4.391461e-002 
-96.350000 	-1.122678e-003 	-1.122678e-003 	3.210544e+000 	-3.211667e+000 	-4.393193e-002 
-96.325000 	-1.113147e-003 	-1.113147e-003 	3.209720e+000 	-3.210833e+000 	-4.394920e-002 
-96.300000 	-1.103612e-003 	-1.103612e-003 	3.208896e+000 	-3.210000e+000 	-4.396642e-002 
-96.275000 	-1.094072e-003 	-1.094072e-003 	3.208073e+000 	-3.209167e+000 	-4.398360e-002 
-96.250000 	-1.084527e-003 	-1.084527e-003 	3.207249e+000 	-3.208333e+000 	-4.400073e-002 
-96.225000 	-1.074978e-003 	-1.074978e-003 	3.206425e+000 	-3.207500e+000 	-4.401782e-002 
-96.200000 	-1.065424e-003 	-1.065424e-003 	3.205601e+000 	-3.206667e+000 	-4.403486e-002 
-96.175000 	-1.055865e-003 	-1.055865e-003 	3.204777e+000 	-3.205833e+000 	-4.405185e-002 
-96.150000 	-1.046302e-003 	-1.046302e-003 	3.203954e+000 	-3.205000e+000 	-4.406879e-002 
-96.125000 	-1.036734e-003 	-1.036734e-003 	3.203130e+000 	-3.204167e+000 	-4.408569e-002 
-96.100000 	-1.027161e-003 	-1.027161e-003 	3.202306e+000 	-3.203333e+000 	-4.410254e-002 
-96.075000 	-1.017584e-003 	-1.017584e-003 	3.201482e+000 	-3.202500e+000 	-4.411935e-002 
-96.050000 	-1.008002e-003 	-1.008002e-003 	3.200659e+000 	-3.201667e+000 	-4.413610e-002 
-96.025000 	-9.984157e-004 	-9.984157e-004 	3.199835e+000 	-3.200833e+000 	-4.415281e-002 
-96.000000 	-9.888246e-004 	-9.888246e-004 	3.199011e+000 	-3.200000e+000 	-4.416948e-002 
-95.975000 	-9.792291e-004 	-9.792291e-004 	3.198187e+000 	-3.199167e+000 	-4.418609e-002 
-95.950000 	-9.696289e-004 	-9.696289e-004 	3.197364e+000 	-3.198333e+000 	-4.420266e-002 
-95.925000 	-9.600243e-004 	-9.600243e-004 	3.196540e+000 	-3.197500e+000 	-4.421918e-002 
-95.900000 	-9.504151e-004 	-9.504151e-004 	3.195716e+000 	-3.196667e+000 	-4.423565e-002 
-95.875000 	-9.408013e-004 	-9.408013e-004 	3.194893e+000 	-3.195833e+000 	-4.425208e-002 
-95.850000 	-9.311831e-004 	-9.311831e-004 	3.194069e+000 	-3.195000e+000 	-4.426846e-002 
-95.825000 	-9.215604e-004 	-9.215604e-004 	3.193245e+000 	-3.194167e+000 	-4.428479e-002 
-95.800000 	-9.119332e-004 	-9.119332e-004 	3.192421e+000 	-3.193333e+000 	-4.430107e-002 
-95.775000 	-9.023016e-004 	-9.023016e-004 	3.191598e+000 	-3.192500e+000 	-4.431731e-002 
-95.750000 	-8.926654e-004 	-8.926654e-004 	3.190774e+000 	-3.191667e+000 	-4.433349e-002 
-95.725000 	-8.830249e-004 	-8.830249e-004 	3.189950e+000 	-3.190833e+000 	-4.434963e-002 
-95.700000 	-8.733799e-004 	-8.733799e-004 	3.189127e+000 	-3.190000e+000 	-4.436573e-002 
-95.675000 	-8.637306e-004 	-8.637306e-004 	3.188303e+000 	-3.189167e+000 	-4.438177e-002 
-95.650000 	-8.540768e-004 	-8.540768e-004 	3.187479e+000 	-3.188333e+000 	-4.439777e-002 
-95.625000 	-8.444186e-004 	-8.444186e-004 	3.186656e+000 	-3.187500e+000 	-4.441371e-002 
-95.600000 	-8.347561e-004 	-8.347561e-004 	3.185832e+000 	-3.186667e+000 	-4.442962e-002 
-95.575000 	-8.250892e-004 	-8.250892e-004 	3.185008e+000 	-3.185833e+000 	-4.444547e-002 
-95.550000 	-8.154179e-004 	-8.154179e-004 	3.184185e+000 	-3.185000e+000 	-4.446127e-002 
-95.525000 	-8.057423e-004 	-8.057423e-004 	3.183361e+000 	-3.184167e+000 	-4.447703e-002 
-95.500000 	-7.960624e-004 	-7.960624e-004 	3.182537e+000 	-3.183333e+000 	-4.449273e-002 
-95.475000 	-7.863782e-004 	-7.863782e-004 	3.181714e+000 	-3.182500e+000 	-4.450839e-002 
-95.450000 	-7.766897e-004 	-7.766897e-004 	3.180890e+000 	-3.181667e+000 	-4.452400e-002 
-95.425000 	-7.669969e-004 	-7.669969e-004 	3.180066e+000 	-3.180833e+000 	-4.453957e-002 
-95.400000 	-7.572998e-004 	-7.572998e-004 	3.179243e+000 	-3.180000e+000 	-4.455508e-002 
-95.375000 	-7.475985e-004 	-7.475985e-004 	3.178419e+000 	-3.179167e+000 	-4.457054e-002 
-95.350000 	-7.378929e-004 	-7.378929e-004 	3.177595e+000 	-3.178333e+000 	-4.458596e-002 
-95.325000 	-7.281831e-004 	-7.281831e-004 	3.176772e+000 	-3.177500e+000 	-4.460133e-002 
-95.300000 	-7.184691e-004 	-7.184691e-004 	3.175948e+000 	-3.176667e+000 	-4.461665e-002 
-95.275000 	-7.087509e-004 	-7.087509e-004 	3.175125e+000 	-3.175833e+000 	-4.463192e-002 
-95.250000 	-6.990285e-004 	-6.990285e-004 	3.174301e+000 	-3.175000e+000 	-4.464714e-002 
-95.225000 	-6.893019e-004 	-6.893019e-004 	3.173477e+000 	-3.174167e+000 	-4.466231e-002 
-95.200000 	-6.795712e-004 	-6.795712e-004 	3.172654e+000 	-3.173333e+000 	-4.467744e-002 
-95.175000 	-6.698363e-004 	-6.698363e-004 	3.171830e+000 	-3.172500e+000 	-4.469251e-002 
-95.150000 	-6.600973e-004 	-6.600973e-004 	3.171007e+000 	-3.171667e+000 	-4.470754e-002 
-95.125000 	-6.503541e-004 	-6.503541e-004 	3.170183e+000 	-3.170833e+000 	-4.472251e-002 
-95.100000 	-6.406069e-004 	-6.406069e-004 	3.169359e+000 	-3.170000e+000 	-4.473744e-002 
-95.075000 	-6.308555e-004 	-6.308555e-004 	3.168536e+000 	-3.169167e+000 	-4.475232e-002 
-95.050000 	-6.211001e-004 	-6.211001e-004 	3.167712e+000 	-3.168333e+000 	-4.476715e-002 
-95.025000 	-6.113406e-004 	-6.113406e-004 	3.166889e+000 	-3.167500e+000 	-4.478193e-002 
-95.000000 	-6.015770e-004 	-6.015770e-004 	3.166065e+000 	-3.166667e+000 	-4.479666e-002 
-94.975000 	-5.918094e-004 	-5.918094e-004 	3.165242e+000 	-3.165833e+000 	-4.481134e-002 
-94.950000 	-5.820378e-004 	-5.820378e-004 	3.164418e+000 	-3.165000e+000 	-4.482597e-002 
-94.925000 	-5.722621e-004 	-5.722621e-004 	3.163594e+000 	-3.164167e+000 	-4.484055e-002 
-94.900000 	-5.624825e-004 	-5.624825e-004 	3.162771e+000 	-3.163333e+000 	-4.485508e-002 
-94.875000 	-5.526988e-004 	-5.526988e-004 	3.161947e+000 	-3.162500e+000 	-4.486956e-002 
-94.850000 	-5.429112e-004 	-5.429112e-004 	3.161124e+000 	-3.161667e+000 	-4.488400e-002 
-94.825000 	-5.331197e-004 	-5.331197e-004 	3.160300e+000 	-3.160833e+000 	-4.489838e-002 
-94.800000 	-5.233241e-004 	-5.233241e-004 	3.159477e+000 	-3.160000e+000 	-4.491271e-002 
-94.775000 	-5.135247e-004 	-5.135247e-004 	3.158653e+000 	-3.159167e+000 	-4.492699e-002 
-94.750000 	-5.037213e-004 	-5.037213e-004 	3.157830e+000 	-3.158333e+000 	-4.494123e-002 
-94.725000 	-4.939140e-004 	-4.939140e-004 	3.157006e+000 	-3.157500e+000 	-4.495541e-002 
-94.700000 	-4.841029e-004 	-4.841029e-004 	3.156183e+000 	-3.156667e+000 	-4.496954e-002 
-94.675000 	-4.742878e-004 	-4.742878e-004 	3.155359e+000 	-3.155833e+000 	-4.498363e-002 
-94.650000 	-4.644689e-004 	-4.644689e-004 	3.154536e+000 	-3.155000e+000 	-4.499766e-002 
-94.625000 	-4.546462e-004 	-4.546462e-004 	3.153712e+000 	-3.154167e+000 	-4.501164e-002 
-94.600000 	-4.448196e-004 	-4.448196e-004 	3.152889e+000 	-3.153333e+000 	-4.502557e-002 
-94.575000 	-4.349891e-004 	-4.349891e-004 	3.152065e+000 	-3.152500e+000 	-4.503946e-002 
-94.550000 	-4.251549e-004 	-4.251549e-004 	3.151242e+000 	-3.151667e+000 	-4.505329e-002 
-94.525000 	-4.153169e-004 	-4.153169e-004 	3.150418e+000 	-3.150833e+000 	-4.506707e-002 
-94.500000 	-4.054751e-004 	-4.054751e-004 	3.149595e+000 	-3.150000e+000 	-4.508080e-002 
-94.475000 	-3.956295e-004 	-3.956295e-004 	3.148771e+000 	-3.149167e+000 	-4.509448e-002 
-94.450000 	-3.857802e-004 	-3.857802e-004 	3.147948e+000 	-3.148333e+000 	-4.510811e-002 
-94.425000 	-3.759271e-004 	-3.759271e-004 	3.147124e+000 	-3.147500e+000 	-4.512169e-002 
-94.400000 	-3.660703e-004 	-3.660703e-004 	3.146301e+000 	-3.146667e+000 	-4.513522e-002 
-94.375000 	-3.562098e-004 	-3.562098e-004 	3.145477e+000 	-3.145833e+000 	-4.514869e-002 
-94.350000 	-3.463456e-004 	-3.463456e-004 	3.144654e+000 	-3.145000e+000 	-4.516212e-002 
-94.325000 	-3.364777e-004 	-3.364777e-004 	3.143830e+000 	-3.144167e+000 	-4.517550e-002 
-94.300000 	-3.266062e-004 	-3.266062e-004 	3.143007e+000 	-3.143333e+000 	-4.518882e-002 
-94.275000 	-3.167310e-004 	-3.167310e-004 	3.142183e+000 	-3.142500e+000 	-4.520209e-002 
-94.250000 	-3.068521e-004 	-3.068521e-004 	3.141360e+000 	-3.141667e+000 	-4.521532e-002 
-94.225000 	-2.969696e-004 	-2.969696e-004 	3.140536e+000 	-3.140833e+000 	-4.522849e-002 
-94.200000 	-2.870835e-004 	-2.870835e-004 	3.139713e+000 	-3.140000e+000 	-4.524161e-002 
-94.175000 	-2.771939e-004 	-2.771939e-004 	3.138889e+000 	-3.139167e+000 	-4.525468e-002 
-94.150000 	-2.673006e-004 	-2.673006e-004 	3.138066e+000 	-3.138333e+000 	-4.526770e-002 
-94.125000 	-2.574037e-004 	-2.574037e-004 	3.137243e+000 	-3.137500e+000 	-4.528066e-002 
-94.100000 	-2.475033e-004 	-2.475033e-004 	3.136419e+000 	-3.136667e+000 	-4.529358e-002 
-94.075000 	-2.375994e-004 	-2.375994e-004 	3.135596e+000 	-3.135833e+000 	-4.530644e-002 
-94.050000 	-2.276919e-004 	-2.276919e-004 	3.134772e+000 	-3.135000e+000 	-4.531925e-002 
-94.025000 	-2.177810e-004 	-2.177810e-004 	3.133949e+000 	-3.134167e+000 	-4.533201e-002 
-94.000000 	-2.078665e-004 	-2.078665e-004 	3.133125e+000 	-3.133333e+000 	-4.534472e-002 
-93.975000 	-1.979485e-004 	-1.979485e-004 	3.132302e+000 	-3.132500e+000 	-4.535738e-002 
-93.950000 	-1.880271e-004 	-1.880271e-004 	3.131479e+000 	-3.131667e+000 	-4.536999e-002 
-93.925000 	-1.781022e-004 	-1.781022e-004 	3.130655e+000 	-3.130833e+000 	-4.538254e-002 
-93.900000 	-1.681739e-004 	-1.681739e-004 	3.129832e+000 	-3.130000e+000 	-4.539504e-002 
-93.875000 	-1.582421e-004 	-1.582421e-004 	3.129008e+000 	-3.129167e+000 	-4.540749e-002 
-93.850000 	-1.483069e-004 	-1.483069e-004 	3.128185e+000 	-3.128333e+000 	-4.541989e-002 
-93.825000 	-1.383684e-004 	-1.383684e-004 	3.127362e+000 	-3.127500e+000 	-4.543224e-002 
-93.800000 	-1.284264e-004 	-1.284264e-004 	3.126538e+000 	-3.126667e+000 	-4.544453e-002 
-93.775000 	-1.184811e-004 	-1.184811e-004 	3.125715e+000 	-3.125833e+000 	-4.545678e-002 
-93.750000 	-1.085324e-004 	-1.085324e-004 	3.124891e+000 	-3.125000e+000 	-4.546897e-002 
-93.725000 	-9.858042e-005 	-9.858042e-005 	3.124068e+000 	-3.124167e+000 	-4.548110e-002 
-93.700000 	-8.862508e-005 	-8.862508e-005 	3.123245e+000 	-3.123333e+000 	-4.549319e-002 
-93.675000 	-7.866644e-005 	-7.866644e-005 	3.122421e+000 	-3.122500e+000 	-4.550522e-002 
-93.650000 	-6.870449e-005 	-6.870449e-005 	3.121598e+000 	-3.121667e+000 	-4.551720e-002 
-93.625000 	-5.873927e-005 	-5.873927e-005 	3.120775e+000 	-3.120833e+000 	-4.552913e-002 
-93.600000 	-4.877078e-005 	-4.877078e-005 	3.119951e+000 	-3.120000e+000 	-4.554101e-002 
-93.575000 	-3.879903e-005 	-3.879903e-005 	3.119128e+000 	-3.119167e+000 	-4.555283e-002 
-93.550000 	-2.882405e-005 	-2.882405e-005 	3.118305e+000 	-3.118333e+000 	-4.556460e-002 
-93.525000 	-1.884585e-005 	-1.884585e-005 	3.117481e+000 	-3.117500e+000 	-4.557632e-002 
-93.500000 	-8.864437e-006 	-8.864437e-006 	3.116658e+000 	-3.116667e+000 	-4.558799e-002 
-93.475000 	1.120167e-006 	1.120167e-006 	3.115834e+000 	-3.115833e+000 	-4.559960e-002 
-93.450000 	1.110795e-005 	1.110795e-005 	3.115011e+000 	-3.115000e+000 	-4.561116e-002 
-93.425000 	2.109890e-005 	2.109890e-005 	3.114188e+000 	-3.114167e+000 	-4.562267e-002 
-93.400000 	3.109299e-005 	3.109299e-005 	3.113364e+000 	-3.113333e+000 	-4.563412e-002 
-93.375000 	4.109022e-005 	4.109022e-005 	3.112541e+000 	-3.112500e+000 	-4.564552e-002 
-93.350000 	5.109057e-005 	5.109057e-005 	3.111718e+000 	-3.111667e+000 	-4.565687e-002 
-93.325000 	6.109402e-005 	6.109402e-005 	3.110894e+000 	-3.110833e+000 	-4.566817e-002 
-93.300000 	7.110056e-005 	7.110056e-005 	3.110071e+000 	-3.110000e+000 	-4.567941e-002 
-93.275000 	8.111018e-005 	8.111018e-005 	3.109248e+000 	-3.109167e+000 	-4.569060e-002 
-93.250000 	9.112285e-005 	9.112285e-005 	3.108424e+000 	-3.108333e+000 	-4.570174e-002 
-93.225000 	1.011386e-004 	1.011386e-004 	3.107601e+000 	-3.107500e+000 	-4.571282e-002 
-93.200000 	1.111573e-004 	1.111573e-004 	3.106778e+000 	-3.106667e+000 	-4.572385e-002 
-93.175000 	1.211791e-004 	1.211791e-004 	3.105955e+000 	-3.105833e+000 	-4.573482e-002 
-93.150000 	1.312038e-004 	1.312038e-004 	3.105131e+000 	-3.105000e+000 	-4.574574e-002 
-93.125000 	1.412316e-004 	1.412316e-004 	3.104308e+000 	-3.104167e+000 	-4.575661e-002 
-93.100000 	1.512623e-004 	1.512623e-004 	3.103485e+000 	-3.103333e+000 	-4.576743e-002 
-93.075000 	1.612960e-004 	1.612960e-004 	3.102661e+000 	-3.102500e+000 	-4.577819e-002 
-93.050000 	1.713326e-004 	1.713326e-004 	3.101838e+000 	-3.101667e+000 	-4.578890e-002 
-93.025000 	1.813721e-004 	1.813721e-004 	3.101015e+000 	-3.100833e+000 	-4.579955e-002 
-93.000000 	1.914146e-004 	1.914146e-004 	3.100191e+000 	-3.100000e+000 	-4.581015e-002 
-92.975000 	2.014599e-004 	2.014599e-004 	3.099368e+000 	-3.099167e+000 	-4.582070e-002 
-92.950000 	2.115081e-004 	2.115081e-004 	3.098545e+000 	-3.098333e+000 	-4.583119e-002 
-92.925000 	2.215592e-004 	2.215592e-004 	3.097722e+000 	-3.097500e+000 	-4.584163e-002 
-92.900000 	2.316131e-004 	2.316131e-004 	3.096898e+000 	-3.096667e+000 	-4.585201e-002 
-92.875000 	2.416699e-004 	2.416699e-004 	3.096075e+000 	-3.095833e+000 	-4.586234e-002 
-92.850000 	2.517295e-004 	2.517295e-004 	3.095252e+000 	-3.095000e+000 	-4.587262e-002 
-92.825000 	2.617918e-004 	2.617918e-004 	3.094428e+000 	-3.094167e+000 	-4.588284e-002 
-92.800000 	2.718570e-004 	2.718570e-004 	3.093605e+000 	-3.093333e+000 	-4.589301e-002 
-92.775000 	2.819249e-004 	2.819249e-004 	3.092782e+000 	-3.092500e+000 	-4.590312e-002 
-92.750000 	2.919956e-004 	2.919956e-004 	3.091959e+000 	-3.091667e+000 	-4.591318e-002 
-92.725000 	3.020691e-004 	3.020691e-004 	3.091135e+000 	-3.090833e+000 	-4.592319e-002 
-92.700000 	3.121452e-004 	3.121452e-004 	3.090312e+000 	-3.090000e+000 	-4.593314e-002 
-92.675000 	3.222241e-004 	3.222241e-004 	3.089489e+000 	-3.089167e+000 	-4.594303e-002 
-92.650000 	3.323057e-004 	3.323057e-004 	3.088666e+000 	-3.088333e+000 	-4.595288e-002 
-92.625000 	3.423899e-004 	3.423899e-004 	3.087842e+000 	-3.087500e+000 	-4.596266e-002 
-92.600000 	3.524768e-004 	3.524768e-004 	3.087019e+000 	-3.086667e+000 	-4.597239e-002 
-92.575000 	3.625664e-004 	3.625664e-004 	3.086196e+000 	-3.085833e+000 	-4.598207e-002 
-92.550000 	3.726586e-004 	3.726586e-004 	3.085373e+000 	-3.085000e+000 	-4.599169e-002 
-92.525000 	3.827534e-004 	3.827534e-004 	3.084549e+000 	-3.084167e+000 	-4.600126e-002 
-92.500000 	3.928508e-004 	3.928508e-004 	3.083726e+000 	-3.083333e+000 	-4.601077e-002 
-92.475000 	4.029508e-004 	4.029508e-004 	3.082903e+000 	-3.082500e+000 	-4.602023e-002 
-92.450000 	4.130533e-004 	4.130533e-004 	3.082080e+000 	-3.081667e+000 	-4.602964e-002 
-92.425000 	4.231585e-004 	4.231585e-004 	3.081256e+000 	-3.080833e+000 	-4.603898e-002 
-92.400000 	4.332661e-004 	4.332661e-004 	3.080433e+000 	-3.080000e+000 	-4.604828e-002 
-92.375000 	4.433763e-004 	4.433763e-004 	3.079610e+000 	-3.079167e+000 	-4.605751e-002 
-92.350000 	4.534890e-004 	4.534890e-004 	3.078787e+000 	-3.078333e+000 	-4.606670e-002 
-92.325000 	4.636042e-004 	4.636042e-004 	3.077964e+000 	-3.077500e+000 	-4.607582e-002 
-92.300000 	4.737219e-004 	4.737219e-004 	3.077140e+000 	-3.076667e+000 	-4.608489e-002 
-92.275000 	4.838420e-004 	4.838420e-004 	3.076317e+000 	-3.075833e+000 	-4.609391e-002 
-92.250000 	4.939646e-004 	4.939646e-004 	3.075494e+000 	-3.075000e+000 	-4.610287e-002 
-92.225000 	5.040896e-004 	5.040896e-004 	3.074671e+000 	-3.074167e+000 	-4.611178e-002 
-92.200000 	5.142170e-004 	5.142170e-004 	3.073848e+000 	-3.073333e+000 	-4.612063e-002 
-92.175000 	5.243468e-004 	5.243468e-004 	3.073024e+000 	-3.072500e+000 	-4.612942e-002 
-92.150000 	5.344790e-004 	5.344790e-004 	3.072201e+000 	-3.071667e+000 	-4.613816e-002 
-92.125000 	5.446135e-004 	5.446135e-004 	3.071378e+000 	-3.070833e+000 	-4.614684e-002 
-92.100000 	5.547504e-004 	5.547504e-004 	3.070555e+000 	-3.070000e+000 	-4.615547e-002 
-92.075000 	5.648897e-004 	5.648897e-004 	3.069732e+000 	-3.069167e+000 	-4.616404e-002 
-92.050000 	5.750312e-004 	5.750312e-004 	3.068908e+000 	-3.068333e+000 	-4.617255e-002 
-92.025000 	5.851751e-004 	5.851751e-004 	3.068085e+000 	-3.067500e+000 	-4.618101e-002 
-92.000000 	5.953213e-004 	5.953213e-004 	3.067262e+000 	-3.066667e+000 	-4.618942e-002 
-91.975000 	6.054697e-004 	6.054697e-004 	3.066439e+000 	-3.065833e+000 	-4.619776e-002 
-91.950000 	6.156204e-004 	6.156204e-004 	3.065616e+000 	-3.065000e+000 	-4.620606e-002 
-91.925000 	6.257733e-004 	6.257733e-004 	3.064792e+000 	-3.064167e+000 	-4.621429e-002 
-91.900000 	6.359284e-004 	6.359284e-004 	3.063969e+000 	-3.063333e+000 	-4.622247e-002 
-91.875000 	6.460858e-004 	6.460858e-004 	3.063146e+000 	-3.062500e+000 	-4.623059e-002 
-91.850000 	6.562453e-004 	6.562453e-004 	3.062323e+000 	-3.061667e+000 	-4.623866e-002 
-91.825000 	6.664070e-004 	6.664070e-004 	3.061500e+000 	-3.060833e+000 	-4.624667e-002 
-91.800000 	6.765709e-004 	6.765709e-004 	3.060677e+000 	-3.060000e+000 	-4.625462e-002 
-91.775000 	6.867369e-004 	6.867369e-004 	3.059853e+000 	-3.059167e+000 	-4.626252e-002 