VARIABLES = X,Ksi,B,H,U,tau 
ZONE T="Time 12.000000", I=501, DATAPACKING=POINT
0.000000	1.433144	1.400000	0.033144	-0.012420	0.175463
1.000000	1.432144	1.399000	0.033144	0.012420	0.175463
2.000000	1.432804	1.398000	0.034804	0.008821	0.171228
3.000000	1.432325	1.397000	0.035325	0.023358	0.169960
4.000000	1.432599	1.396000	0.036599	0.025196	0.166975
5.000000	1.432344	1.395000	0.037344	0.034915	0.165302
6.000000	1.432427	1.394000	0.038427	0.038849	0.162955
7.000000	1.432259	1.393000	0.039259	0.046183	0.161218
8.000000	1.432242	1.392000	0.040242	0.050810	0.159239
9.000000	1.432100	1.391000	0.041100	0.056868	0.157567
10.000000	1.432022	1.390000	0.042022	0.061611	0.155830
11.000000	1.431879	1.389000	0.042879	0.066921	0.154264
12.000000	1.431759	1.388000	0.043759	0.071554	0.152705
13.000000	1.431603	1.387000	0.044603	0.076377	0.151254
14.000000	1.431451	1.386000	0.045451	0.080825	0.149836
15.000000	1.431275	1.385000	0.046275	0.085302	0.148495
16.000000	1.431096	1.384000	0.047096	0.089552	0.147196
17.000000	1.430899	1.383000	0.047899	0.093764	0.145957
18.000000	1.430694	1.382000	0.048694	0.097825	0.144760
19.000000	1.430475	1.381000	0.049475	0.101825	0.143612
20.000000	1.430247	1.380000	0.050247	0.105715	0.142506
21.000000	1.430006	1.379000	0.051006	0.109540	0.141441
22.000000	1.429755	1.378000	0.051755	0.113278	0.140414
23.000000	1.429492	1.377000	0.052492	0.116954	0.139425
24.000000	1.429218	1.376000	0.053218	0.120561	0.138470
25.000000	1.428934	1.375000	0.053934	0.124110	0.137549
26.000000	1.428639	1.374000	0.054639	0.127600	0.136659
27.000000	1.428332	1.373000	0.055332	0.131040	0.135799
28.000000	1.428016	1.372000	0.056016	0.134430	0.134968
29.000000	1.427688	1.371000	0.056688	0.137775	0.134165
30.000000	1.427350	1.370000	0.057350	0.141077	0.133389
31.000000	1.427002	1.369000	0.058002	0.144340	0.132637
32.000000	1.426643	1.368000	0.058643	0.147567	0.131911
33.000000	1.426273	1.367000	0.059273	0.150759	0.131207
34.000000	1.425893	1.366000	0.059893	0.153920	0.130526
35.000000	1.425503	1.365000	0.060503	0.157051	0.129867
36.000000	1.425101	1.364000	0.061101	0.160155	0.129229
37.000000	1.424690	1.363000	0.061690	0.163234	0.128612
38.000000	1.424267	1.362000	0.062267	0.166291	0.128014
39.000000	1.423835	1.361000	0.062835	0.169326	0.127435
40.000000	1.423391	1.360000	0.063391	0.172342	0.126874
41.000000	1.422937	1.359000	0.063937	0.175340	0.126332
42.000000	1.422472	1.358000	0.064472	0.178323	0.125806
43.000000	1.421996	1.357000	0.064996	0.181291	0.125298
44.000000	1.421509	1.356000	0.065509	0.184248	0.124807
45.000000	1.421011	1.355000	0.066011	0.187193	0.124331
46.000000	1.420502	1.354000	0.066502	0.190129	0.123871
47.000000	1.419981	1.353000	0.066981	0.193058	0.123427
48.000000	1.419450	1.352000	0.067450	0.195980	0.122998
49.000000	1.418906	1.351000	0.067906	0.198898	0.122584
50.000000	1.418351	1.350000	0.068351	0.201813	0.122184
51.000000	1.417784	1.349000	0.068784	0.204726	0.121799
52.000000	1.417205	1.348000	0.069205	0.207639	0.121428
53.000000	1.416614	1.347000	0.069614	0.210554	0.121071
54.000000	1.416010	1.346000	0.070010	0.213472	0.120727
55.000000	1.415394	1.345000	0.070394	0.216395	0.120398
56.000000	1.414765	1.344000	0.070765	0.219325	0.120082
57.000000	1.414122	1.343000	0.071122	0.222262	0.119780
58.000000	1.413466	1.342000	0.071466	0.225211	0.119492
59.000000	1.412796	1.341000	0.071796	0.228171	0.119217
60.000000	1.412112	1.340000	0.072112	0.231145	0.118955
61.000000	1.411413	1.339000	0.072413	0.234136	0.118707
62.000000	1.410700	1.338000	0.072700	0.237144	0.118473
63.000000	1.409971	1.337000	0.072971	0.240174	0.118253
64.000000	1.409226	1.336000	0.073226	0.243227	0.118047
65.000000	1.408465	1.335000	0.073465	0.246307	0.117854
66.000000	1.407688	1.334000	0.073688	0.249415	0.117677
67.000000	1.406892	1.333000	0.073892	0.252555	0.117513
68.000000	1.406079	1.332000	0.074079	0.255732	0.117365
69.000000	1.405247	1.331000	0.074247	0.258947	0.117233
70.000000	1.404395	1.330000	0.074395	0.262207	0.117116
71.000000	1.403522	1.329000	0.074522	0.265514	0.117016
72.000000	1.402629	1.328000	0.074629	0.268875	0.116932
73.000000	1.401713	1.327000	0.074713	0.272295	0.116866
74.000000	1.400773	1.326000	0.074773	0.275780	0.116819
75.000000	1.399809	1.325000	0.074809	0.279337	0.116791
76.000000	1.398818	1.324000	0.074818	0.282974	0.116784
77.000000	1.397800	1.323000	0.074800	0.286700	0.116798
78.000000	1.396753	1.322000	0.074753	0.290524	0.116835
79.000000	1.395674	1.321000	0.074674	0.294458	0.116897
80.000000	1.394561	1.320000	0.074561	0.298516	0.116985
81.000000	1.393412	1.319000	0.074412	0.302711	0.117102
82.000000	1.392224	1.318000	0.074224	0.307062	0.117250
83.000000	1.390994	1.317000	0.073994	0.311588	0.117432
84.000000	1.389718	1.316000	0.073718	0.316315	0.117652
85.000000	1.388392	1.315000	0.073392	0.321271	0.117913
86.000000	1.387009	1.314000	0.073009	0.326490	0.118222
87.000000	1.385565	1.313000	0.072565	0.332016	0.118583
88.000000	1.384051	1.312000	0.072051	0.337902	0.119005
89.000000	1.382459	1.311000	0.071459	0.344214	0.119498
90.000000	1.380776	1.310000	0.070776	0.351038	0.120073
91.000000	1.378988	1.309000	0.069988	0.358487	0.120747
92.000000	1.377075	1.308000	0.069075	0.366712	0.121542
93.000000	1.375014	1.307000	0.068014	0.375930	0.122487
94.000000	1.372766	1.306000	0.066766	0.386439	0.123626
95.000000	1.370282	1.305000	0.065282	0.398729	0.125023
96.000000	1.367477	1.304000	0.063477	0.413535	0.126788
97.000000	1.364221	1.303000	0.061221	0.432323	0.129103
98.000000	1.360232	1.302000	0.058232	0.457871	0.132375
99.000000	1.354874	1.301000	0.053874	0.498354	0.137625
100.000000	1.345213	1.300000	0.045213	0.592495	0.150230
101.000000	1.330824	1.290000	0.040824	0.667290	0.158099
102.000000	1.320906	1.280000	0.040906	0.669994	0.157940
103.000000	1.311060	1.270000	0.041060	0.671424	0.157645
104.000000	1.301212	1.260000	0.041212	0.672975	0.157353
105.000000	1.291413	1.250000	0.041413	0.673342	0.156971
106.000000	1.282687	1.240000	0.042687	0.656627	0.154611
107.000000	1.277532	1.230000	0.047532	0.603186	0.146519
108.000000	1.275262	1.220000	0.055262	0.536198	0.135885
109.000000	1.273863	1.210000	0.063863	0.480493	0.126405
110.000000	1.272877	1.200000	0.072877	0.436054	0.118329
111.000000	1.272125	1.190000	0.082125	0.400535	0.111467
112.000000	1.271533	1.180000	0.091533	0.371708	0.105584
113.000000	1.271049	1.170000	0.101049	0.347978	0.100489
114.000000	1.270649	1.160000	0.110649	0.328148	0.096031
115.000000	1.270309	1.150000	0.120309	0.311380	0.092095
116.000000	1.270019	1.140000	0.130019	0.297018	0.088590
117.000000	1.269767	1.130000	0.139767	0.284609	0.085445
118.000000	1.269546	1.120000	0.149546	0.273773	0.082604
119.000000	1.269351	1.110000	0.159351	0.264248	0.080022
120.000000	1.269177	1.100000	0.169177	0.255802	0.077663
121.000000	1.269021	1.090000	0.179021	0.248274	0.075498
122.000000	1.268881	1.080000	0.188881	0.241516	0.073501
123.000000	1.268753	1.070000	0.198753	0.235425	0.071652
124.000000	1.268636	1.060000	0.208636	0.229901	0.069935
125.000000	1.268529	1.050000	0.218529	0.224875	0.068333
126.000000	1.268431	1.040000	0.228431	0.220280	0.066836
127.000000	1.268340	1.030000	0.238340	0.216065	0.065432
128.000000	1.268256	1.020000	0.248256	0.212184	0.064112
129.000000	1.268178	1.010000	0.258178	0.208600	0.062868
130.000000	1.268105	1.000000	0.268105	0.205281	0.061693
131.000000	1.268036	0.990000	0.278036	0.202198	0.060581
132.000000	1.267972	0.980000	0.287972	0.199327	0.059527
133.000000	1.267912	0.970000	0.297912	0.196648	0.058525
134.000000	1.267855	0.960000	0.307855	0.194142	0.057572
135.000000	1.267801	0.950000	0.317801	0.191792	0.056664
136.000000	1.267750	0.940000	0.327750	0.189586	0.055798
137.000000	1.267702	0.930000	0.337702	0.187510	0.054969
138.000000	1.267656	0.920000	0.347656	0.185553	0.054177
139.000000	1.267612	0.910000	0.357612	0.183705	0.053417
140.000000	1.267570	0.900000	0.367570	0.181958	0.052689
141.000000	1.267530	0.890000	0.377530	0.180304	0.051989
142.000000	1.267492	0.880000	0.387492	0.178735	0.051316
143.000000	1.267455	0.870000	0.397455	0.177245	0.050669
144.000000	1.267420	0.860000	0.407420	0.175829	0.050046
145.000000	1.267387	0.850000	0.417387	0.174481	0.049444
146.000000	1.267354	0.840000	0.427354	0.173196	0.048864
147.000000	1.267323	0.830000	0.437323	0.171970	0.048304
148.000000	1.267293	0.820000	0.447293	0.170800	0.047763
149.000000	1.267264	0.810000	0.457264	0.169681	0.047239
150.000000	1.267236	0.800000	0.467236	0.168610	0.046732
151.000000	1.267209	0.790000	0.477209	0.167585	0.046242
152.000000	1.267183	0.780000	0.487183	0.166602	0.045766
153.000000	1.267157	0.770000	0.497157	0.165659	0.045304
154.000000	1.267133	0.760000	0.507133	0.164753	0.044857
155.000000	1.267109	0.750000	0.517109	0.163883	0.044422
156.000000	1.267086	0.740000	0.527086	0.163046	0.043999
157.000000	1.267063	0.730000	0.537063	0.162241	0.043589
158.000000	1.267041	0.720000	0.547041	0.161466	0.043189
159.000000	1.267020	0.710000	0.557020	0.160719	0.042801
160.000000	1.267000	0.700000	0.567000	0.159999	0.042422
161.000000	1.266979	0.690000	0.576979	0.159304	0.042054
162.000000	1.266960	0.680000	0.586960	0.158633	0.041695
163.000000	1.266941	0.670000	0.596941	0.157985	0.041345
164.000000	1.266922	0.660000	0.606922	0.157359	0.041003
165.000000	1.266904	0.650000	0.616904	0.156753	0.040670
166.000000	1.266886	0.640000	0.626886	0.156168	0.040345
167.000000	1.266869	0.630000	0.636869	0.155600	0.040028
168.000000	1.266852	0.620000	0.646852	0.155051	0.039718
169.000000	1.266835	0.610000	0.656835	0.154519	0.039415
170.000000	1.266819	0.600000	0.666819	0.154003	0.039119
171.000000	1.266803	0.590000	0.676803	0.153503	0.038829
172.000000	1.266788	0.580000	0.686788	0.153018	0.038546
173.000000	1.266772	0.570000	0.696772	0.152547	0.038269
174.000000	1.266757	0.560000	0.706757	0.152089	0.037997
175.000000	1.266743	0.550000	0.716743	0.151645	0.037732
176.000000	1.266729	0.540000	0.726729	0.151213	0.037471
177.000000	1.266714	0.530000	0.736714	0.150793	0.037217
178.000000	1.266701	0.520000	0.746701	0.150385	0.036967
179.000000	1.266687	0.510000	0.756687	0.149988	0.036722
180.000000	1.266674	0.500000	0.766674	0.149601	0.036482
181.000000	1.266661	0.490000	0.776661	0.149225	0.036247
182.000000	1.266648	0.480000	0.786648	0.148859	0.036016
183.000000	1.266636	0.470000	0.796636	0.148502	0.035790
184.000000	1.266623	0.460000	0.806623	0.148154	0.035567
185.000000	1.266611	0.450000	0.816611	0.147815	0.035349
186.000000	1.266599	0.440000	0.826599	0.147484	0.035135
187.000000	1.266587	0.430000	0.836587	0.147162	0.034925
188.000000	1.266576	0.420000	0.846576	0.146847	0.034718
189.000000	1.266565	0.410000	0.856565	0.146540	0.034515
190.000000	1.266553	0.400000	0.866553	0.146241	0.034315
191.000000	1.266542	0.390000	0.876542	0.145948	0.034119
192.000000	1.266532	0.380000	0.886532	0.145662	0.033927
193.000000	1.266521	0.370000	0.896521	0.145383	0.033737
194.000000	1.266510	0.360000	0.906510	0.145111	0.033551
195.000000	1.266500	0.350000	0.916500	0.144844	0.033367
196.000000	1.266490	0.340000	0.926490	0.144583	0.033187
197.000000	1.266480	0.330000	0.936480	0.144328	0.033009
198.000000	1.266470	0.320000	0.946470	0.144079	0.032835
199.000000	1.266460	0.310000	0.956460	0.143835	0.032663
200.000000	1.266450	0.300000	0.966450	0.143597	0.032494
201.000000	1.266421	0.299000	0.967421	0.144701	0.032477
202.000000	1.266391	0.298000	0.968391	0.145802	0.032461
203.000000	1.266361	0.297000	0.969361	0.146901	0.032445
204.000000	1.266330	0.296000	0.970330	0.147998	0.032429
205.000000	1.266298	0.295000	0.971298	0.149094	0.032412
206.000000	1.266266	0.294000	0.972266	0.150187	0.032396
207.000000	1.266234	0.293000	0.973234	0.151279	0.032380
208.000000	1.266201	0.292000	0.974201	0.152369	0.032364
209.000000	1.266167	0.291000	0.975167	0.153457	0.032348
210.000000	1.266133	0.290000	0.976133	0.154543	0.032332
211.000000	1.266098	0.289000	0.977098	0.155627	0.032316
212.000000	1.266063	0.288000	0.978063	0.156710	0.032300
213.000000	1.266027	0.287000	0.979027	0.157790	0.032284
214.000000	1.265990	0.286000	0.979990	0.158869	0.032268
215.000000	1.265953	0.285000	0.980953	0.159946	0.032252
216.000000	1.265916	0.284000	0.981916	0.161021	0.032237
217.000000	1.265878	0.283000	0.982878	0.162094	0.032221
218.000000	1.265839	0.282000	0.983839	0.163166	0.032205
219.000000	1.265800	0.281000	0.984800	0.164235	0.032189
220.000000	1.265760	0.280000	0.985760	0.165303	0.032174
221.000000	1.265720	0.279000	0.986720	0.166369	0.032158
222.000000	1.265679	0.278000	0.987679	0.167433	0.032142
223.000000	1.265638	0.277000	0.988638	0.168496	0.032127
224.000000	1.265596	0.276000	0.989596	0.169557	0.032111
225.000000	1.265554	0.275000	0.990554	0.170615	0.032096
226.000000	1.265511	0.274000	0.991511	0.171673	0.032080
227.000000	1.265467	0.273000	0.992467	0.172728	0.032065
228.000000	1.265423	0.272000	0.993423	0.173782	0.032049
229.000000	1.265378	0.271000	0.994378	0.174834	0.032034
230.000000	1.265333	0.270000	0.995333	0.175884	0.032019
231.000000	1.265287	0.269000	0.996287	0.176933	0.032003
232.000000	1.265241	0.268000	0.997241	0.177979	0.031988
233.000000	1.265194	0.267000	0.998194	0.179024	0.031973
234.000000	1.265147	0.266000	0.999147	0.180068	0.031957
235.000000	1.265099	0.265000	1.000099	0.181110	0.031942
236.000000	1.265050	0.264000	1.001050	0.182149	0.031927
237.000000	1.265001	0.263000	1.002001	0.183188	0.031912
238.000000	1.264952	0.262000	1.002952	0.184224	0.031897
239.000000	1.264901	0.261000	1.003901	0.185259	0.031882
240.000000	1.264851	0.260000	1.004851	0.186293	0.031867
241.000000	1.264799	0.259000	1.005799	0.187324	0.031852
242.000000	1.264748	0.258000	1.006748	0.188354	0.031837
243.000000	1.264695	0.257000	1.007695	0.189382	0.031822
244.000000	1.264642	0.256000	1.008642	0.190409	0.031807
245.000000	1.264589	0.255000	1.009589	0.191434	0.031792
246.000000	1.264534	0.254000	1.010534	0.192457	0.031777
247.000000	1.264480	0.253000	1.011480	0.193479	0.031762
248.000000	1.264425	0.252000	1.012425	0.194499	0.031747
249.000000	1.264369	0.251000	1.013369	0.195517	0.031732
250.000000	1.264312	0.250000	1.014312	0.196534	0.031718
251.000000	1.264256	0.249000	1.015256	0.197549	0.031703
252.000000	1.264198	0.248000	1.016198	0.198563	0.031688
253.000000	1.264140	0.247000	1.017140	0.199575	0.031674
254.000000	1.264081	0.246000	1.018081	0.200585	0.031659
255.000000	1.264022	0.245000	1.019022	0.201594	0.031644
256.000000	1.263963	0.244000	1.019963	0.202601	0.031630
257.000000	1.263902	0.243000	1.020902	0.203606	0.031615
258.000000	1.263841	0.242000	1.021841	0.204610	0.031601
259.000000	1.263780	0.241000	1.022780	0.205612	0.031586
260.000000	1.263718	0.240000	1.023718	0.206613	0.031572
261.000000	1.263655	0.239000	1.024655	0.207612	0.031557
262.000000	1.263592	0.238000	1.025592	0.208609	0.031543
263.000000	1.263528	0.237000	1.026528	0.209605	0.031528
264.000000	1.263464	0.236000	1.027464	0.210600	0.031514
265.000000	1.263399	0.235000	1.028399	0.211592	0.031500
266.000000	1.263334	0.234000	1.029334	0.212583	0.031485
267.000000	1.263268	0.233000	1.030268	0.213573	0.031471
268.000000	1.263201	0.232000	1.031201	0.214561	0.031457
269.000000	1.263134	0.231000	1.032134	0.215547	0.031443
270.000000	1.263066	0.230000	1.033066	0.216532	0.031428
271.000000	1.262998	0.229000	1.033998	0.217516	0.031414
272.000000	1.262929	0.228000	1.034929	0.218497	0.031400
273.000000	1.262859	0.227000	1.035859	0.219478	0.031386
274.000000	1.262789	0.226000	1.036789	0.220456	0.031372
275.000000	1.262718	0.225000	1.037718	0.221433	0.031358
276.000000	1.262647	0.224000	1.038647	0.222409	0.031344
277.000000	1.262575	0.223000	1.039575	0.223383	0.031330
278.000000	1.262503	0.222000	1.040503	0.224355	0.031316
279.000000	1.262430	0.221000	1.041430	0.225326	0.031302
280.000000	1.262356	0.220000	1.042356	0.226296	0.031288
281.000000	1.262282	0.219000	1.043282	0.227264	0.031274
282.000000	1.262207	0.218000	1.044207	0.228230	0.031260
283.000000	1.262131	0.217000	1.045131	0.229195	0.031247
284.000000	1.262055	0.216000	1.046055	0.230158	0.031233
285.000000	1.261979	0.215000	1.046979	0.231120	0.031219
286.000000	1.261902	0.214000	1.047902	0.232080	0.031205
287.000000	1.261824	0.213000	1.048824	0.233039	0.031191
288.000000	1.261746	0.212000	1.049746	0.233996	0.031178
289.000000	1.261667	0.211000	1.050667	0.234952	0.031164
290.000000	1.261587	0.210000	1.051587	0.235906	0.031150
291.000000	1.261507	0.209000	1.052507	0.236859	0.031137
292.000000	1.261426	0.208000	1.053426	0.237811	0.031123
293.000000	1.261345	0.207000	1.054345	0.238760	0.031110
294.000000	1.261263	0.206000	1.055263	0.239709	0.031096
295.000000	1.261180	0.205000	1.056180	0.240656	0.031083
296.000000	1.261097	0.204000	1.057097	0.241601	0.031069
297.000000	1.261014	0.203000	1.058014	0.242545	0.031056
298.000000	1.260929	0.202000	1.058929	0.243488	0.031042
299.000000	1.260844	0.201000	1.059844	0.244429	0.031029
300.000000	1.260759	0.200000	1.060759	0.245368	0.031015
301.000000	1.260673	0.199000	1.061673	0.246306	0.031002
302.000000	1.260586	0.198000	1.062586	0.247243	0.030989
303.000000	1.260499	0.197000	1.063499	0.248178	0.030976
304.000000	1.260411	0.196000	1.064411	0.249112	0.030962
305.000000	1.260322	0.195000	1.065322	0.250045	0.030949
306.000000	1.260233	0.194000	1.066233	0.250976	0.030936
307.000000	1.260144	0.193000	1.067144	0.251905	0.030923
308.000000	1.260053	0.192000	1.068053	0.252833	0.030909
309.000000	1.259963	0.191000	1.068963	0.253760	0.030896
310.000000	1.259871	0.190000	1.069871	0.254685	0.030883
311.000000	1.259779	0.189000	1.070779	0.255609	0.030870
312.000000	1.259687	0.188000	1.071687	0.256532	0.030857
313.000000	1.259593	0.187000	1.072593	0.257453	0.030844
314.000000	1.259499	0.186000	1.073499	0.258373	0.030831
315.000000	1.259405	0.185000	1.074405	0.259291	0.030818
316.000000	1.259310	0.184000	1.075310	0.260208	0.030805
317.000000	1.259214	0.183000	1.076214	0.261124	0.030792
318.000000	1.259118	0.182000	1.077118	0.262038	0.030779
319.000000	1.259021	0.181000	1.078021	0.262951	0.030766
320.000000	1.258924	0.180000	1.078924	0.263863	0.030753
321.000000	1.258826	0.179000	1.079826	0.264773	0.030740
322.000000	1.258727	0.178000	1.080727	0.265682	0.030728
323.000000	1.258628	0.177000	1.081628	0.266590	0.030715
324.000000	1.258529	0.176000	1.082529	0.267496	0.030702
325.000000	1.258428	0.175000	1.083428	0.268401	0.030689
326.000000	1.258327	0.174000	1.084327	0.269305	0.030677
327.000000	1.258226	0.173000	1.085226	0.270207	0.030664
328.000000	1.258124	0.172000	1.086124	0.271108	0.030651
329.000000	1.258021	0.171000	1.087021	0.272008	0.030639
330.000000	1.257918	0.170000	1.087918	0.272906	0.030626
331.000000	1.257814	0.169000	1.088814	0.273803	0.030613
332.000000	1.257709	0.168000	1.089709	0.274699	0.030601
333.000000	1.257604	0.167000	1.090604	0.275594	0.030588
334.000000	1.257499	0.166000	1.091499	0.276487	0.030576
335.000000	1.257392	0.165000	1.092392	0.277379	0.030563
336.000000	1.257285	0.164000	1.093285	0.278270	0.030551
337.000000	1.257178	0.163000	1.094178	0.279159	0.030538
338.000000	1.257070	0.162000	1.095070	0.280047	0.030526
339.000000	1.256961	0.161000	1.095961	0.280934	0.030513
340.000000	1.256852	0.160000	1.096852	0.281820	0.030501
341.000000	1.256743	0.159000	1.097743	0.282704	0.030489
342.000000	1.256632	0.158000	1.098632	0.283588	0.030476
343.000000	1.256521	0.157000	1.099521	0.284470	0.030464
344.000000	1.256410	0.156000	1.100410	0.285350	0.030452
345.000000	1.256298	0.155000	1.101298	0.286230	0.030439
346.000000	1.256185	0.154000	1.102185	0.287108	0.030427
347.000000	1.256072	0.153000	1.103072	0.287985	0.030415
348.000000	1.255958	0.152000	1.103958	0.288861	0.030403
349.000000	1.255843	0.151000	1.104843	0.289736	0.030390
350.000000	1.255728	0.150000	1.105728	0.290609	0.030378
351.000000	1.255613	0.149000	1.106613	0.291482	0.030366
352.000000	1.255497	0.148000	1.107497	0.292353	0.030354
353.000000	1.255380	0.147000	1.108380	0.293223	0.030342
354.000000	1.255262	0.146000	1.109262	0.294092	0.030330
355.000000	1.255145	0.145000	1.110145	0.294959	0.030318
356.000000	1.255026	0.144000	1.111026	0.295826	0.030306
357.000000	1.254907	0.143000	1.111907	0.296691	0.030294
358.000000	1.254787	0.142000	1.112787	0.297555	0.030282
359.000000	1.254667	0.141000	1.113667	0.298418	0.030270
360.000000	1.254546	0.140000	1.114546	0.299280	0.030258
361.000000	1.254425	0.139000	1.115425	0.300140	0.030246
362.000000	1.254303	0.138000	1.116303	0.301000	0.030234
363.000000	1.254180	0.137000	1.117180	0.301858	0.030222
364.000000	1.254057	0.136000	1.118057	0.302716	0.030210
365.000000	1.253933	0.135000	1.118933	0.303572	0.030198
366.000000	1.253809	0.134000	1.119809	0.304427	0.030187
367.000000	1.253684	0.133000	1.120684	0.305281	0.030175
368.000000	1.253559	0.132000	1.121559	0.306133	0.030163
369.000000	1.253433	0.131000	1.122433	0.306985	0.030151
370.000000	1.253306	0.130000	1.123306	0.307836	0.030140
371.000000	1.253179	0.129000	1.124179	0.308685	0.030128
372.000000	1.253051	0.128000	1.125051	0.309533	0.030116
373.000000	1.252923	0.127000	1.125923	0.310381	0.030105
374.000000	1.252794	0.126000	1.126794	0.311227	0.030093
375.000000	1.252665	0.125000	1.127665	0.312072	0.030081
376.000000	1.252535	0.124000	1.128535	0.312916	0.030070
377.000000	1.252404	0.123000	1.129404	0.313759	0.030058
378.000000	1.252273	0.122000	1.130273	0.314601	0.030047
379.000000	1.252141	0.121000	1.131141	0.315442	0.030035
380.000000	1.252009	0.120000	1.132009	0.316281	0.030024
381.000000	1.251876	0.119000	1.132876	0.317120	0.030012
382.000000	1.251743	0.118000	1.133743	0.317958	0.030001
383.000000	1.251609	0.117000	1.134609	0.318794	0.029989
384.000000	1.251474	0.116000	1.135474	0.319630	0.029978
385.000000	1.251339	0.115000	1.136339	0.320465	0.029966
386.000000	1.251204	0.114000	1.137204	0.321298	0.029955
387.000000	1.251067	0.113000	1.138067	0.322131	0.029944
388.000000	1.250931	0.112000	1.138931	0.322962	0.029932
389.000000	1.250793	0.111000	1.139793	0.323793	0.029921
390.000000	1.250655	0.110000	1.140655	0.324622	0.029910
391.000000	1.250517	0.109000	1.141517	0.325451	0.029898
392.000000	1.250378	0.108000	1.142378	0.326278	0.029887
393.000000	1.250238	0.107000	1.143238	0.327105	0.029876
394.000000	1.250098	0.106000	1.144098	0.327930	0.029865
395.000000	1.249957	0.105000	1.144957	0.328755	0.029853
396.000000	1.249816	0.104000	1.145816	0.329578	0.029842
397.000000	1.249674	0.103000	1.146674	0.330401	0.029831
398.000000	1.249532	0.102000	1.147532	0.331222	0.029820
399.000000	1.249389	0.101000	1.148389	0.332043	0.029809
400.000000	1.249245	0.100000	1.149245	0.332863	0.029798
401.000000	1.249101	0.099000	1.150101	0.333681	0.029786
402.000000	1.248957	0.098000	1.150957	0.334499	0.029775
403.000000	1.248811	0.097000	1.151811	0.335316	0.029764
404.000000	1.248666	0.096000	1.152666	0.336132	0.029753
405.000000	1.248519	0.095000	1.153519	0.336947	0.029742
406.000000	1.248373	0.094000	1.154373	0.337761	0.029731
407.000000	1.248225	0.093000	1.155225	0.338574	0.029720
408.000000	1.248077	0.092000	1.156077	0.339386	0.029709
409.000000	1.247929	0.091000	1.156929	0.340197	0.029698
410.000000	1.247780	0.090000	1.157780	0.341008	0.029688
411.000000	1.247630	0.089000	1.158630	0.341817	0.029677
412.000000	1.247480	0.088000	1.159480	0.342626	0.029666
413.000000	1.247329	0.087000	1.160329	0.343433	0.029655
414.000000	1.247178	0.086000	1.161178	0.344240	0.029644
415.000000	1.247026	0.085000	1.162026	0.345046	0.029633
416.000000	1.246874	0.084000	1.162874	0.345851	0.029622
417.000000	1.246721	0.083000	1.163721	0.346655	0.029612
418.000000	1.246568	0.082000	1.164568	0.347458	0.029601
419.000000	1.246414	0.081000	1.165414	0.348261	0.029590
420.000000	1.246260	0.080000	1.166260	0.349062	0.029579
421.000000	1.246105	0.079000	1.167105	0.349863	0.029569
422.000000	1.245949	0.078000	1.167949	0.350663	0.029558
423.000000	1.245793	0.077000	1.168793	0.351462	0.029547
424.000000	1.245636	0.076000	1.169636	0.352260	0.029537
425.000000	1.245479	0.075000	1.170479	0.353057	0.029526
426.000000	1.245322	0.074000	1.171322	0.353853	0.029515
427.000000	1.245163	0.073000	1.172163	0.354649	0.029505
428.000000	1.245005	0.072000	1.173005	0.355444	0.029494
429.000000	1.244845	0.071000	1.173845	0.356238	0.029484
430.000000	1.244686	0.070000	1.174686	0.357031	0.029473
431.000000	1.244525	0.069000	1.175525	0.357823	0.029463
432.000000	1.244364	0.068000	1.176364	0.358614	0.029452
433.000000	1.244203	0.067000	1.177203	0.359405	0.029442
434.000000	1.244041	0.066000	1.178041	0.360195	0.029431
435.000000	1.243879	0.065000	1.178879	0.360984	0.029421
436.000000	1.243716	0.064000	1.179716	0.361772	0.029410
437.000000	1.243552	0.063000	1.180552	0.362560	0.029400
438.000000	1.243388	0.062000	1.181388	0.363346	0.029389
439.000000	1.243223	0.061000	1.182223	0.364132	0.029379
440.000000	1.243058	0.060000	1.183058	0.364917	0.029369
441.000000	1.242893	0.059000	1.183893	0.365702	0.029358
442.000000	1.242726	0.058000	1.184726	0.366485	0.029348
443.000000	1.242560	0.057000	1.185560	0.367268	0.029338
444.000000	1.242392	0.056000	1.186392	0.368050	0.029327
445.000000	1.242225	0.055000	1.187225	0.368831	0.029317
446.000000	1.242056	0.054000	1.188056	0.369612	0.029307
447.000000	1.241888	0.053000	1.188888	0.370391	0.029297
448.000000	1.241718	0.052000	1.189718	0.371170	0.029286
449.000000	1.241548	0.051000	1.190548	0.371948	0.029276
450.000000	1.241378	0.050000	1.191378	0.372726	0.029266
451.000000	1.241207	0.049000	1.192207	0.373502	0.029256
452.000000	1.241036	0.048000	1.193036	0.374278	0.029246
453.000000	1.240864	0.047000	1.193864	0.375053	0.029235
454.000000	1.240691	0.046000	1.194691	0.375828	0.029225
455.000000	1.240518	0.045000	1.195518	0.376601	0.029215
456.000000	1.240345	0.044000	1.196345	0.377374	0.029205
457.000000	1.240171	0.043000	1.197171	0.378147	0.029195
458.000000	1.239996	0.042000	1.197996	0.378918	0.029185
459.000000	1.239821	0.041000	1.198821	0.379689	0.029175
460.000000	1.239645	0.040000	1.199645	0.380459	0.029165
461.000000	1.239469	0.039000	1.200469	0.381228	0.029155
462.000000	1.239293	0.038000	1.201293	0.381997	0.029145
463.000000	1.239115	0.037000	1.202115	0.382765	0.029135
464.000000	1.238938	0.036000	1.202938	0.383532	0.029125
465.000000	1.238759	0.035000	1.203759	0.384298	0.029115
466.000000	1.238581	0.034000	1.204581	0.385064	0.029105
467.000000	1.238401	0.033000	1.205401	0.385829	0.029095
468.000000	1.238222	0.032000	1.206222	0.386593	0.029085
469.000000	1.238041	0.031000	1.207041	0.387357	0.029075
470.000000	1.237861	0.030000	1.207861	0.388119	0.029066
471.000000	1.237679	0.029000	1.208679	0.388882	0.029056
472.000000	1.237497	0.028000	1.209497	0.389643	0.029046
473.000000	1.237315	0.027000	1.210315	0.390404	0.029036
474.000000	1.237132	0.026000	1.211132	0.391164	0.029026
475.000000	1.236949	0.025000	1.211949	0.391923	0.029016
476.000000	1.236765	0.024000	1.212765	0.392682	0.029007
477.000000	1.236580	0.023000	1.213580	0.393440	0.028997
478.000000	1.236395	0.022000	1.214395	0.394197	0.028987
479.000000	1.236210	0.021000	1.215210	0.394954	0.028978
480.000000	1.236024	0.020000	1.216024	0.395710	0.028968
481.000000	1.235838	0.019000	1.216838	0.396465	0.028958
482.000000	1.235650	0.018000	1.217650	0.397219	0.028948
483.000000	1.235463	0.017000	1.218463	0.397974	0.028939
484.000000	1.235275	0.016000	1.219275	0.398726	0.028929
485.000000	1.235087	0.015000	1.220087	0.399480	0.028920
486.000000	1.234897	0.014000	1.220897	0.400230	0.028910
487.000000	1.234708	0.013000	1.221708	0.400984	0.028900
488.000000	1.234517	0.012000	1.222517	0.401731	0.028891
489.000000	1.234328	0.011000	1.223328	0.402486	0.028881
490.000000	1.234134	0.010000	1.224134	0.403227	0.028872
491.000000	1.233947	0.009000	1.224947	0.403988	0.028862
492.000000	1.233748	0.008000	1.225748	0.404717	0.028853
493.000000	1.233566	0.007000	1.226566	0.405495	0.028843
494.000000	1.233356	0.006000	1.227356	0.406193	0.028834
495.000000	1.233189	0.005000	1.228189	0.407015	0.028824
496.000000	1.232952	0.004000	1.228952	0.407641	0.028815
497.000000	1.232825	0.003000	1.229825	0.408575	0.028805
498.000000	1.232524	0.002000	1.230524	0.409020	0.028797
499.000000	1.232495	0.001000	1.231495	0.410235	0.028785
500.000000	1.232035	0.000000	1.232035	0.410235	0.028779
