VARIABLES = X,Ksi,B,H,U,tau 
ZONE T="Time 45.000000", I=2200, DATAPACKING=POINT
-100.000000	-0.003590	-3.333333	3.329743	0.038082 	0.001751
-99.950000	-0.002489	-3.331667	3.329178	0.036284 	0.001751
-99.900000	-0.002923	-3.330000	3.327077	0.037119 	0.001751
-99.850000	-0.002696	-3.328333	3.325637	0.036818 	0.001752
-99.800000	-0.002754	-3.326667	3.323913	0.037006 	0.001752
-99.750000	-0.002689	-3.325000	3.322311	0.036984 	0.001753
-99.700000	-0.002676	-3.323333	3.320657	0.037052 	0.001753
-99.650000	-0.002641	-3.321667	3.319026	0.037081 	0.001753
-99.600000	-0.002616	-3.320000	3.317384	0.037127 	0.001754
-99.550000	-0.002586	-3.318333	3.315747	0.037166 	0.001754
-99.500000	-0.002558	-3.316667	3.314109	0.037207 	0.001755
-99.450000	-0.002530	-3.315000	3.312470	0.037247 	0.001755
-99.400000	-0.002501	-3.313333	3.310832	0.037288 	0.001756
-99.350000	-0.002473	-3.311667	3.309194	0.037328 	0.001756
-99.300000	-0.002444	-3.310000	3.307556	0.037368 	0.001756
-99.250000	-0.002416	-3.308333	3.305917	0.037407 	0.001757
-99.200000	-0.002387	-3.306667	3.304280	0.037447 	0.001757
-99.150000	-0.002359	-3.305000	3.302641	0.037487 	0.001758
-99.100000	-0.002330	-3.303333	3.301003	0.037526 	0.001758
-99.050000	-0.002301	-3.301667	3.299366	0.037565 	0.001759
-99.000000	-0.002273	-3.300000	3.297727	0.037604 	0.001759
-98.950000	-0.002244	-3.298333	3.296089	0.037643 	0.001759
-98.900000	-0.002215	-3.296667	3.294452	0.037682 	0.001760
-98.850000	-0.002187	-3.295000	3.292813	0.037721 	0.001760
-98.800000	-0.002158	-3.293333	3.291175	0.037759 	0.001761
-98.750000	-0.002129	-3.291667	3.289538	0.037798 	0.001761
-98.700000	-0.002100	-3.290000	3.287900	0.037836 	0.001762
-98.650000	-0.002071	-3.288333	3.286262	0.037874 	0.001762
-98.600000	-0.002042	-3.286667	3.284625	0.037912 	0.001763
-98.550000	-0.002014	-3.285000	3.282986	0.037950 	0.001763
-98.500000	-0.001985	-3.283333	3.281348	0.037988 	0.001763
-98.450000	-0.001956	-3.281667	3.279711	0.038025 	0.001764
-98.400000	-0.001927	-3.280000	3.278073	0.038063 	0.001764
-98.350000	-0.001898	-3.278333	3.276435	0.038100 	0.001765
-98.300000	-0.001868	-3.276667	3.274799	0.038137 	0.001765
-98.250000	-0.001839	-3.275000	3.273161	0.038174 	0.001766
-98.200000	-0.001810	-3.273333	3.271523	0.038211 	0.001766
-98.150000	-0.001781	-3.271667	3.269886	0.038248 	0.001767
-98.100000	-0.001752	-3.270000	3.268248	0.038284 	0.001767
-98.050000	-0.001723	-3.268333	3.266610	0.038321 	0.001767
-98.000000	-0.001694	-3.266667	3.264973	0.038357 	0.001768
-97.950000	-0.001664	-3.265000	3.263336	0.038393 	0.001768
-97.900000	-0.001635	-3.263333	3.261698	0.038429 	0.001769
-97.850000	-0.001606	-3.261667	3.260061	0.038465 	0.001769
-97.800000	-0.001576	-3.260000	3.258424	0.038501 	0.001770
-97.750000	-0.001547	-3.258333	3.256786	0.038536 	0.001770
-97.700000	-0.001518	-3.256667	3.255149	0.038572 	0.001771
-97.650000	-0.001488	-3.255000	3.253512	0.038607 	0.001771
-97.600000	-0.001459	-3.253333	3.251874	0.038642 	0.001771
-97.550000	-0.001429	-3.251667	3.250238	0.038677 	0.001772
-97.500000	-0.001400	-3.250000	3.248600	0.038712 	0.001772
-97.450000	-0.001370	-3.248333	3.246963	0.038746 	0.001773
-97.400000	-0.001341	-3.246667	3.245326	0.038781 	0.001773
-97.350000	-0.001311	-3.245000	3.243689	0.038815 	0.001774
-97.300000	-0.001281	-3.243333	3.242052	0.038849 	0.001774
-97.250000	-0.001252	-3.241667	3.240415	0.038883 	0.001775
-97.200000	-0.001222	-3.240000	3.238778	0.038917 	0.001775
-97.150000	-0.001193	-3.238333	3.237140	0.038951 	0.001775
-97.100000	-0.001163	-3.236667	3.235504	0.038984 	0.001776
-97.050000	-0.001133	-3.235000	3.233867	0.039018 	0.001776
-97.000000	-0.001103	-3.233333	3.232230	0.039051 	0.001777
-96.950000	-0.001074	-3.231667	3.230593	0.039084 	0.001777
-96.900000	-0.001044	-3.230000	3.228956	0.039117 	0.001778
-96.850000	-0.001014	-3.228333	3.227319	0.039150 	0.001778
-96.800000	-0.000984	-3.226667	3.225683	0.039182 	0.001779
-96.750000	-0.000954	-3.225000	3.224046	0.039215 	0.001779
-96.700000	-0.000924	-3.223333	3.222409	0.039247 	0.001779
-96.650000	-0.000894	-3.221667	3.220773	0.039279 	0.001780
-96.600000	-0.000864	-3.220000	3.219136	0.039311 	0.001780
-96.550000	-0.000834	-3.218333	3.217499	0.039343 	0.001781
-96.500000	-0.000804	-3.216667	3.215863	0.039375 	0.001781
-96.450000	-0.000774	-3.215000	3.214226	0.039406 	0.001782
-96.400000	-0.000744	-3.213333	3.212589	0.039438 	0.001782
-96.350000	-0.000714	-3.211667	3.210953	0.039469 	0.001783
-96.300000	-0.000684	-3.210000	3.209316	0.039500 	0.001783
-96.250000	-0.000654	-3.208333	3.207679	0.039531 	0.001784
-96.200000	-0.000624	-3.206667	3.206043	0.039562 	0.001784
-96.150000	-0.000594	-3.205000	3.204406	0.039592 	0.001784
-96.100000	-0.000563	-3.203333	3.202770	0.039623 	0.001785
-96.050000	-0.000533	-3.201667	3.201134	0.039653 	0.001785
-96.000000	-0.000503	-3.200000	3.199497	0.039683 	0.001786
-95.950000	-0.000473	-3.198333	3.197860	0.039713 	0.001786
-95.900000	-0.000442	-3.196667	3.196225	0.039742 	0.001787
-95.850000	-0.000412	-3.195000	3.194588	0.039772 	0.001787
-95.800000	-0.000382	-3.193333	3.192951	0.039801 	0.001788
-95.750000	-0.000351	-3.191667	3.191316	0.039831 	0.001788
-95.700000	-0.000321	-3.190000	3.189679	0.039860 	0.001789
-95.650000	-0.000290	-3.188333	3.188043	0.039889 	0.001789
-95.600000	-0.000260	-3.186667	3.186407	0.039917 	0.001790
-95.550000	-0.000230	-3.185000	3.184770	0.039946 	0.001790
-95.500000	-0.000199	-3.183333	3.183134	0.039974 	0.001790
-95.450000	-0.000169	-3.181667	3.181498	0.040003 	0.001791
-95.400000	-0.000138	-3.180000	3.179862	0.040031 	0.001791
-95.350000	-0.000108	-3.178333	3.178225	0.040058 	0.001792
-95.300000	-0.000077	-3.176667	3.176590	0.040086 	0.001792
-95.250000	-0.000046	-3.175000	3.174954	0.040114 	0.001793
-95.200000	-0.000016	-3.173333	3.173317	0.040141 	0.001793
-95.150000	0.000015	-3.171667	3.171682	0.040168 	0.001794
-95.100000	0.000046	-3.170000	3.170046	0.040195 	0.001794
-95.050000	0.000076	-3.168333	3.168409	0.040222 	0.001795
-95.000000	0.000107	-3.166667	3.166774	0.040249 	0.001795
-94.950000	0.000138	-3.165000	3.165138	0.040275 	0.001796
-94.900000	0.000168	-3.163333	3.163501	0.040302 	0.001796
-94.850000	0.000199	-3.161667	3.161866	0.040328 	0.001796
-94.800000	0.000230	-3.160000	3.160230	0.040354 	0.001797
-94.750000	0.000261	-3.158333	3.158594	0.040379 	0.001797
-94.700000	0.000292	-3.156667	3.156959	0.040405 	0.001798
-94.650000	0.000323	-3.155000	3.155323	0.040431 	0.001798
-94.600000	0.000354	-3.153333	3.153687	0.040456 	0.001799
-94.550000	0.000384	-3.151667	3.152051	0.040481 	0.001799
-94.500000	0.000415	-3.150000	3.150415	0.040506 	0.001800
-94.450000	0.000446	-3.148333	3.148779	0.040530 	0.001800
-94.400000	0.000477	-3.146667	3.147144	0.040555 	0.001801
-94.350000	0.000508	-3.145000	3.145508	0.040579 	0.001801
-94.300000	0.000539	-3.143333	3.143872	0.040603 	0.001802
-94.250000	0.000570	-3.141667	3.142237	0.040627 	0.001802
-94.200000	0.000601	-3.140000	3.140601	0.040651 	0.001803
-94.150000	0.000633	-3.138333	3.138966	0.040675 	0.001803
-94.100000	0.000664	-3.136667	3.137331	0.040698 	0.001803
-94.050000	0.000695	-3.135000	3.135695	0.040721 	0.001804
-94.000000	0.000726	-3.133333	3.134059	0.040744 	0.001804
-93.950000	0.000757	-3.131667	3.132424	0.040767 	0.001805
-93.900000	0.000788	-3.130000	3.130788	0.040790 	0.001805
-93.850000	0.000820	-3.128333	3.129153	0.040812 	0.001806
-93.800000	0.000851	-3.126667	3.127518	0.040835 	0.001806
-93.750000	0.000882	-3.125000	3.125882	0.040857 	0.001807
-93.700000	0.000913	-3.123333	3.124246	0.040879 	0.001807
-93.650000	0.000945	-3.121667	3.122612	0.040900 	0.001808
-93.600000	0.000976	-3.120000	3.120976	0.040922 	0.001808
-93.550000	0.001007	-3.118333	3.119340	0.040943 	0.001809
-93.500000	0.001039	-3.116667	3.117706	0.040964 	0.001809
-93.450000	0.001070	-3.115000	3.116070	0.040985 	0.001810
-93.400000	0.001102	-3.113333	3.114435	0.041006 	0.001810
-93.350000	0.001133	-3.111667	3.112800	0.041027 	0.001811
-93.300000	0.001164	-3.110000	3.111164	0.041047 	0.001811
-93.250000	0.001196	-3.108333	3.109529	0.041067 	0.001812
-93.200000	0.001228	-3.106667	3.107895	0.041087 	0.001812
-93.150000	0.001259	-3.105000	3.106259	0.041107 	0.001812
-93.100000	0.001291	-3.103333	3.104624	0.041126 	0.001813
-93.050000	0.001322	-3.101667	3.102989	0.041146 	0.001813
-93.000000	0.001354	-3.100000	3.101354	0.041165 	0.001814
-92.950000	0.001385	-3.098333	3.099718	0.041184 	0.001814
-92.900000	0.001417	-3.096667	3.098084	0.041202 	0.001815
-92.850000	0.001449	-3.095000	3.096449	0.041221 	0.001815
-92.800000	0.001481	-3.093333	3.094814	0.041239 	0.001816
-92.750000	0.001512	-3.091667	3.093179	0.041257 	0.001816
-92.700000	0.001544	-3.090000	3.091544	0.041275 	0.001817
-92.650000	0.001576	-3.088333	3.089909	0.041293 	0.001817
-92.600000	0.001608	-3.086667	3.088275	0.041310 	0.001818
-92.550000	0.001639	-3.085000	3.086639	0.041328 	0.001818
-92.500000	0.001671	-3.083333	3.085004	0.041345 	0.001819
-92.450000	0.001703	-3.081667	3.083370	0.041361 	0.001819
-92.400000	0.001735	-3.080000	3.081735	0.041378 	0.001820
-92.350000	0.001767	-3.078333	3.080100	0.041394 	0.001820
-92.300000	0.001799	-3.076667	3.078466	0.041411 	0.001821
-92.250000	0.001831	-3.075000	3.076831	0.041427 	0.001821
-92.200000	0.001863	-3.073333	3.075196	0.041442 	0.001822
-92.150000	0.001895	-3.071667	3.073562	0.041458 	0.001822
-92.100000	0.001927	-3.070000	3.071927	0.041473 	0.001823
-92.050000	0.001959	-3.068333	3.070292	0.041488 	0.001823
-92.000000	0.001991	-3.066667	3.068658	0.041503 	0.001824
-91.950000	0.002024	-3.065000	3.067024	0.041518 	0.001824
-91.900000	0.002056	-3.063333	3.065389	0.041532 	0.001825
-91.850000	0.002088	-3.061667	3.063755	0.041546 	0.001825
-91.800000	0.002120	-3.060000	3.062120	0.041560 	0.001825
-91.750000	0.002152	-3.058333	3.060485	0.041574 	0.001826
-91.700000	0.002185	-3.056667	3.058852	0.041587 	0.001826
-91.650000	0.002217	-3.055000	3.057217	0.041601 	0.001827
-91.600000	0.002249	-3.053333	3.055582	0.041614 	0.001827
-91.550000	0.002282	-3.051667	3.053949	0.041627 	0.001828
-91.500000	0.002314	-3.050000	3.052314	0.041639 	0.001828
-91.450000	0.002347	-3.048333	3.050680	0.041651 	0.001829
-91.400000	0.002379	-3.046667	3.049046	0.041664 	0.001829
-91.350000	0.002411	-3.045000	3.047411	0.041675 	0.001830
-91.300000	0.002444	-3.043333	3.045777	0.041687 	0.001830
-91.250000	0.002477	-3.041667	3.044144	0.041698 	0.001831
-91.200000	0.002509	-3.040000	3.042509	0.041709 	0.001831
-91.150000	0.002542	-3.038333	3.040875	0.041720 	0.001832
-91.100000	0.002574	-3.036667	3.039241	0.041731 	0.001832
-91.050000	0.002607	-3.035000	3.037607	0.041741 	0.001833
-91.000000	0.002640	-3.033333	3.035973	0.041752 	0.001833
-90.950000	0.002673	-3.031667	3.034340	0.041761 	0.001834
-90.900000	0.002705	-3.030000	3.032705	0.041771 	0.001834
-90.850000	0.002738	-3.028333	3.031071	0.041781 	0.001835
-90.800000	0.002771	-3.026667	3.029438	0.041790 	0.001835
-90.750000	0.002804	-3.025000	3.027804	0.041799 	0.001836
-90.700000	0.002837	-3.023333	3.026170	0.041807 	0.001836
-90.650000	0.002870	-3.021667	3.024537	0.041816 	0.001837
-90.600000	0.002903	-3.020000	3.022903	0.041824 	0.001837
-90.550000	0.002936	-3.018333	3.021269	0.041832 	0.001838
-90.500000	0.002969	-3.016667	3.019636	0.041839 	0.001838
-90.450000	0.003002	-3.015000	3.018002	0.041847 	0.001839
-90.400000	0.003035	-3.013333	3.016368	0.041854 	0.001839
-90.350000	0.003068	-3.011667	3.014735	0.041861 	0.001840
-90.300000	0.003101	-3.010000	3.013101	0.041867 	0.001840
-90.250000	0.003134	-3.008333	3.011467	0.041874 	0.001841
-90.200000	0.003167	-3.006667	3.009834	0.041880 	0.001841
-90.150000	0.003201	-3.005000	3.008201	0.041886 	0.001842
-90.100000	0.003234	-3.003333	3.006567	0.041891 	0.001842
-90.050000	0.003267	-3.001667	3.004934	0.041897 	0.001843
-90.000000	0.003301	-3.000000	3.003301	0.041902 	0.001843
-89.950000	0.003334	-2.998333	3.001667	0.041906 	0.001844
-89.900000	0.003368	-2.996667	3.000035	0.041911 	0.001844
-89.850000	0.003401	-2.995000	2.998401	0.041915 	0.001845
-89.800000	0.003434	-2.993333	2.996767	0.041919 	0.001845
-89.750000	0.003468	-2.991667	2.995135	0.041923 	0.001846
-89.700000	0.003502	-2.990000	2.993502	0.041926 	0.001846
-89.650000	0.003535	-2.988333	2.991868	0.041929 	0.001847
-89.600000	0.003569	-2.986667	2.990236	0.041932 	0.001847
-89.550000	0.003602	-2.985000	2.988602	0.041935 	0.001848
-89.500000	0.003636	-2.983333	2.986969	0.041937 	0.001848
-89.450000	0.003670	-2.981667	2.985337	0.041939 	0.001849
-89.400000	0.003704	-2.980000	2.983704	0.041941 	0.001849
-89.350000	0.003737	-2.978333	2.982070	0.041943 	0.001850
-89.300000	0.003771	-2.976667	2.980438	0.041944 	0.001850
-89.250000	0.003805	-2.975000	2.978805	0.041945 	0.001851
-89.200000	0.003839	-2.973333	2.977172	0.041945 	0.001851
-89.150000	0.003873	-2.971667	2.975540	0.041946 	0.001852
-89.100000	0.003907	-2.970000	2.973907	0.041946 	0.001852
-89.050000	0.003941	-2.968333	2.972274	0.041946 	0.001853
-89.000000	0.003975	-2.966667	2.970642	0.041945 	0.001853
-88.950000	0.004009	-2.965000	2.969009	0.041945 	0.001854
-88.900000	0.004043	-2.963333	2.967376	0.041944 	0.001854
-88.850000	0.004077	-2.961667	2.965744	0.041942 	0.001855
-88.800000	0.004111	-2.960000	2.964111	0.041941 	0.001855
-88.750000	0.004146	-2.958333	2.962479	0.041939 	0.001856
-88.700000	0.004180	-2.956667	2.960847	0.041937 	0.001856
-88.650000	0.004214	-2.955000	2.959214	0.041935 	0.001857
-88.600000	0.004248	-2.953333	2.957581	0.041932 	0.001857
-88.550000	0.004283	-2.951667	2.955950	0.041929 	0.001858
-88.500000	0.004317	-2.950000	2.954317	0.041926 	0.001858
-88.450000	0.004351	-2.948333	2.952684	0.041922 	0.001859
-88.400000	0.004386	-2.946667	2.951053	0.041919 	0.001860
-88.350000	0.004420	-2.945000	2.949420	0.041915 	0.001860
-88.300000	0.004455	-2.943333	2.947788	0.041910 	0.001861
-88.250000	0.004489	-2.941667	2.946156	0.041906 	0.001861
-88.200000	0.004523	-2.940000	2.944523	0.041901 	0.001862
-88.150000	0.004558	-2.938333	2.942891	0.041895 	0.001862
-88.100000	0.004593	-2.936667	2.941260	0.041890 	0.001863
-88.050000	0.004627	-2.935000	2.939627	0.041884 	0.001863
-88.000000	0.004662	-2.933333	2.937995	0.041878 	0.001864
-87.950000	0.004696	-2.931667	2.936363	0.041872 	0.001864
-87.900000	0.004731	-2.930000	2.934731	0.041865 	0.001865
-87.850000	0.004766	-2.928333	2.933099	0.041859 	0.001865
-87.800000	0.004800	-2.926667	2.931467	0.041851 	0.001866
-87.750000	0.004835	-2.925000	2.929835	0.041844 	0.001866
-87.700000	0.004870	-2.923333	2.928203	0.041836 	0.001867
-87.650000	0.004904	-2.921667	2.926571	0.041828 	0.001867
-87.600000	0.004939	-2.920000	2.924939	0.041820 	0.001868
-87.550000	0.004974	-2.918333	2.923307	0.041812 	0.001868
-87.500000	0.005009	-2.916667	2.921676	0.041803 	0.001869
-87.450000	0.005044	-2.915000	2.920044	0.041794 	0.001869
-87.400000	0.005078	-2.913333	2.918411	0.041785 	0.001870
-87.350000	0.005113	-2.911667	2.916780	0.041775 	0.001870
-87.300000	0.005148	-2.910000	2.915148	0.041765 	0.001871
-87.250000	0.005183	-2.908333	2.913516	0.041755 	0.001871
-87.200000	0.005218	-2.906667	2.911885	0.041744 	0.001872
-87.150000	0.005253	-2.905000	2.910253	0.041734 	0.001872
-87.100000	0.005288	-2.903333	2.908621	0.041723 	0.001873
-87.050000	0.005323	-2.901667	2.906990	0.041712 	0.001874
-87.000000	0.005358	-2.900000	2.905358	0.041700 	0.001874
-86.950000	0.005393	-2.898333	2.903726	0.041688 	0.001875
-86.900000	0.005428	-2.896667	2.902095	0.041676 	0.001875
-86.850000	0.005463	-2.895000	2.900463	0.041664 	0.001876
-86.800000	0.005498	-2.893333	2.898831	0.041651 	0.001876
-86.750000	0.005532	-2.891667	2.897199	0.041638 	0.001877
-86.700000	0.005567	-2.890000	2.895567	0.041625 	0.001877
-86.650000	0.005602	-2.888333	2.893935	0.041612 	0.001878
-86.600000	0.005637	-2.886667	2.892304	0.041598 	0.001878
-86.550000	0.005672	-2.885000	2.890672	0.041584 	0.001879
-86.500000	0.005707	-2.883333	2.889040	0.041570 	0.001879
-86.450000	0.005743	-2.881667	2.887410	0.041556 	0.001880
-86.400000	0.005778	-2.880000	2.885778	0.041541 	0.001880
-86.350000	0.005813	-2.878333	2.884146	0.041526 	0.001881
-86.300000	0.005848	-2.876667	2.882515	0.041511 	0.001881
-86.250000	0.005883	-2.875000	2.880883	0.041495 	0.001882
-86.200000	0.005918	-2.873333	2.879251	0.041479 	0.001883
-86.150000	0.005953	-2.871667	2.877620	0.041463 	0.001883
-86.100000	0.005988	-2.870000	2.875988	0.041447 	0.001884
-86.050000	0.006023	-2.868333	2.874356	0.041430 	0.001884
-86.000000	0.006058	-2.866667	2.872725	0.041414 	0.001885
-85.950000	0.006093	-2.865000	2.871093	0.041397 	0.001885
-85.900000	0.006128	-2.863333	2.869461	0.041379 	0.001886
-85.850000	0.006163	-2.861667	2.867830	0.041362 	0.001886
-85.800000	0.006198	-2.860000	2.866198	0.041344 	0.001887
-85.750000	0.006233	-2.858333	2.864566	0.041326 	0.001887
-85.700000	0.006268	-2.856667	2.862935	0.041307 	0.001888
-85.650000	0.006303	-2.855000	2.861303	0.041289 	0.001888
-85.600000	0.006338	-2.853333	2.859671	0.041270 	0.001889
-85.550000	0.006372	-2.851667	2.858039	0.041250 	0.001890
-85.500000	0.006407	-2.850000	2.856407	0.041231 	0.001890
-85.450000	0.006442	-2.848333	2.854775	0.041211 	0.001891
-85.400000	0.006477	-2.846667	2.853144	0.041191 	0.001891
-85.350000	0.006512	-2.845000	2.851512	0.041171 	0.001892
-85.300000	0.006547	-2.843333	2.849880	0.041151 	0.001892
-85.250000	0.006582	-2.841667	2.848249	0.041130 	0.001893
-85.200000	0.006617	-2.840000	2.846617	0.041109 	0.001893
-85.150000	0.006652	-2.838333	2.844985	0.041088 	0.001894
-85.100000	0.006687	-2.836667	2.843354	0.041067 	0.001894
-85.050000	0.006721	-2.835000	2.841721	0.041045 	0.001895
-85.000000	0.006756	-2.833333	2.840089	0.041023 	0.001895
-84.950000	0.006791	-2.831667	2.838458	0.041001 	0.001896
-84.900000	0.006826	-2.830000	2.836826	0.040978 	0.001897
-84.850000	0.006861	-2.828333	2.835194	0.040955 	0.001897
-84.800000	0.006895	-2.826667	2.833562	0.040932 	0.001898
-84.750000	0.006930	-2.825000	2.831930	0.040909 	0.001898
-84.700000	0.006965	-2.823333	2.830298	0.040886 	0.001899
-84.650000	0.007000	-2.821667	2.828667	0.040862 	0.001899
-84.600000	0.007034	-2.820000	2.827034	0.040838 	0.001900
-84.550000	0.007069	-2.818333	2.825402	0.040814 	0.001900
-84.500000	0.007104	-2.816667	2.823771	0.040789 	0.001901
-84.450000	0.007138	-2.815000	2.822138	0.040764 	0.001902
-84.400000	0.007173	-2.813333	2.820506	0.040739 	0.001902
-84.350000	0.007207	-2.811667	2.818874	0.040714 	0.001903
-84.300000	0.007242	-2.810000	2.817242	0.040688 	0.001903
-84.250000	0.007276	-2.808333	2.815609	0.040663 	0.001904
-84.200000	0.007311	-2.806667	2.813978	0.040637 	0.001904
-84.150000	0.007346	-2.805000	2.812346	0.040610 	0.001905
-84.100000	0.007380	-2.803333	2.810713	0.040584 	0.001905
-84.050000	0.007414	-2.801667	2.809081	0.040557 	0.001906
-84.000000	0.007449	-2.800000	2.807449	0.040530 	0.001906
-83.950000	0.007483	-2.798333	2.805816	0.040502 	0.001907
-83.900000	0.007518	-2.796667	2.804185	0.040475 	0.001908
-83.850000	0.007552	-2.795000	2.802552	0.040447 	0.001908
-83.800000	0.007586	-2.793333	2.800919	0.040419 	0.001909
-83.750000	0.007621	-2.791667	2.799288	0.040391 	0.001909
-83.700000	0.007655	-2.790000	2.797655	0.040362 	0.001910
-83.650000	0.007689	-2.788333	2.796022	0.040333 	0.001910
-83.600000	0.007723	-2.786667	2.794390	0.040304 	0.001911
-83.550000	0.007758	-2.785000	2.792758	0.040275 	0.001911
-83.500000	0.007792	-2.783333	2.791125	0.040245 	0.001912
-83.450000	0.007826	-2.781667	2.789493	0.040215 	0.001913
-83.400000	0.007860	-2.780000	2.787860	0.040185 	0.001913
-83.350000	0.007894	-2.778333	2.786227	0.040155 	0.001914
-83.300000	0.007928	-2.776667	2.784595	0.040124 	0.001914
-83.250000	0.007962	-2.775000	2.782962	0.040093 	0.001915
-83.200000	0.007996	-2.773333	2.781329	0.040062 	0.001915
-83.150000	0.008030	-2.771667	2.779697	0.040030 	0.001916
-83.100000	0.008064	-2.770000	2.778064	0.039999 	0.001917
-83.050000	0.008098	-2.768333	2.776431	0.039967 	0.001917
-83.000000	0.008132	-2.766667	2.774799	0.039934 	0.001918
-82.950000	0.008166	-2.765000	2.773166	0.039902 	0.001918
-82.900000	0.008200	-2.763333	2.771533	0.039869 	0.001919
-82.850000	0.008234	-2.761667	2.769901	0.039836 	0.001919
-82.800000	0.008268	-2.760000	2.768268	0.039803 	0.001920
-82.750000	0.008301	-2.758333	2.766634	0.039770 	0.001920
-82.700000	0.008335	-2.756667	2.765002	0.039736 	0.001921
-82.650000	0.008369	-2.755000	2.763369	0.039702 	0.001922
-82.600000	0.008402	-2.753333	2.761735	0.039667 	0.001922
-82.550000	0.008436	-2.751667	2.760103	0.039633 	0.001923
-82.500000	0.008470	-2.750000	2.758470	0.039598 	0.001923
-82.450000	0.008503	-2.748333	2.756836	0.039563 	0.001924
-82.400000	0.008537	-2.746667	2.755204	0.039528 	0.001924
-82.350000	0.008570	-2.745000	2.753570	0.039492 	0.001925
-82.300000	0.008604	-2.743333	2.751937	0.039456 	0.001926
-82.250000	0.008637	-2.741667	2.750304	0.039420 	0.001926
-82.200000	0.008670	-2.740000	2.748670	0.039384 	0.001927
-82.150000	0.008704	-2.738333	2.747037	0.039347 	0.001927
-82.100000	0.008737	-2.736667	2.745404	0.039310 	0.001928
-82.050000	0.008770	-2.735000	2.743770	0.039273 	0.001928
-82.000000	0.008804	-2.733333	2.742137	0.039236 	0.001929
-81.950000	0.008837	-2.731667	2.740504	0.039198 	0.001930
-81.900000	0.008870	-2.730000	2.738870	0.039160 	0.001930
-81.850000	0.008903	-2.728333	2.737236	0.039122 	0.001931
-81.800000	0.008936	-2.726667	2.735603	0.039083 	0.001931
-81.750000	0.008969	-2.725000	2.733969	0.039045 	0.001932
-81.700000	0.009002	-2.723333	2.732335	0.039006 	0.001933
-81.650000	0.009035	-2.721667	2.730702	0.038966 	0.001933
-81.600000	0.009068	-2.720000	2.729068	0.038927 	0.001934
-81.550000	0.009101	-2.718333	2.727434	0.038887 	0.001934
-81.500000	0.009134	-2.716667	2.725801	0.038847 	0.001935
-81.450000	0.009167	-2.715000	2.724167	0.038807 	0.001935
-81.400000	0.009200	-2.713333	2.722533	0.038766 	0.001936
-81.350000	0.009232	-2.711667	2.720899	0.038725 	0.001937
-81.300000	0.009265	-2.710000	2.719265	0.038684 	0.001937
-81.250000	0.009298	-2.708333	2.717631	0.038643 	0.001938
-81.200000	0.009330	-2.706667	2.715997	0.038601 	0.001938
-81.150000	0.009363	-2.705000	2.714363	0.038559 	0.001939
-81.100000	0.009396	-2.703333	2.712729	0.038517 	0.001939
-81.050000	0.009428	-2.701667	2.711095	0.038474 	0.001940
-81.000000	0.009461	-2.700000	2.709461	0.038432 	0.001941
-80.950000	0.009493	-2.698333	2.707826	0.038389 	0.001941
-80.900000	0.009525	-2.696667	2.706192	0.038345 	0.001942
-80.850000	0.009558	-2.695000	2.704558	0.038302 	0.001942
-80.800000	0.009590	-2.693333	2.702923	0.038258 	0.001943
-80.750000	0.009622	-2.691667	2.701289	0.038214 	0.001944
-80.700000	0.009654	-2.690000	2.699654	0.038170 	0.001944
-80.650000	0.009687	-2.688333	2.698020	0.038125 	0.001945
-80.600000	0.009719	-2.686667	2.696386	0.038080 	0.001945
-80.550000	0.009751	-2.685000	2.694751	0.038035 	0.001946
-80.500000	0.009783	-2.683333	2.693116	0.037990 	0.001947
-80.450000	0.009815	-2.681667	2.691482	0.037944 	0.001947
-80.400000	0.009847	-2.680000	2.689847	0.037898 	0.001948
-80.350000	0.009879	-2.678333	2.688212	0.037852 	0.001948
-80.300000	0.009910	-2.676667	2.686577	0.037805 	0.001949
-80.250000	0.009942	-2.675000	2.684942	0.037759 	0.001949
-80.200000	0.009974	-2.673333	2.683307	0.037712 	0.001950
-80.150000	0.010006	-2.671667	2.681673	0.037664 	0.001951
-80.100000	0.010037	-2.670000	2.680037	0.037617 	0.001951
-80.050000	0.010069	-2.668333	2.678402	0.037569 	0.001952
-80.000000	0.010101	-2.666667	2.676768	0.037521 	0.001952
-79.950000	0.010132	-2.665000	2.675132	0.037472 	0.001953
-79.900000	0.010164	-2.663333	2.673497	0.037424 	0.001954
-79.850000	0.010195	-2.661667	2.671862	0.037375 	0.001954
-79.800000	0.010226	-2.660000	2.670226	0.037326 	0.001955
-79.750000	0.010258	-2.658333	2.668591	0.037276 	0.001955
-79.700000	0.010289	-2.656667	2.666956	0.037226 	0.001956
-79.650000	0.010320	-2.655000	2.665320	0.037176 	0.001957
-79.600000	0.010351	-2.653333	2.663684	0.037126 	0.001957
-79.550000	0.010382	-2.651667	2.662049	0.037075 	0.001958
-79.500000	0.010413	-2.650000	2.660413	0.037025 	0.001958
-79.450000	0.010445	-2.648333	2.658778	0.036974 	0.001959
-79.400000	0.010475	-2.646667	2.657142	0.036922 	0.001960
-79.350000	0.010506	-2.645000	2.655506	0.036871 	0.001960
-79.300000	0.010537	-2.643333	2.653870	0.036819 	0.001961
-79.250000	0.010568	-2.641667	2.652235	0.036766 	0.001961
-79.200000	0.010599	-2.640000	2.650599	0.036714 	0.001962
-79.150000	0.010630	-2.638333	2.648963	0.036661 	0.001963
-79.100000	0.010660	-2.636667	2.647327	0.036608 	0.001963
-79.050000	0.010691	-2.635000	2.645691	0.036555 	0.001964
-79.000000	0.010721	-2.633333	2.644054	0.036501 	0.001964
-78.950000	0.010752	-2.631667	2.642419	0.036447 	0.001965
-78.900000	0.010782	-2.630000	2.640782	0.036393 	0.001966
-78.850000	0.010813	-2.628333	2.639146	0.036339 	0.001966
-78.800000	0.010843	-2.626667	2.637510	0.036284 	0.001967
-78.750000	0.010873	-2.625000	2.635873	0.036229 	0.001968
-78.700000	0.010903	-2.623333	2.634236	0.036174 	0.001968
-78.650000	0.010934	-2.621667	2.632601	0.036119 	0.001969
-78.600000	0.010964	-2.620000	2.630964	0.036063 	0.001969
-78.550000	0.010994	-2.618333	2.629327	0.036007 	0.001970
-78.500000	0.011024	-2.616667	2.627691	0.035950 	0.001971
-78.450000	0.011054	-2.615000	2.626054	0.035894 	0.001971
-78.400000	0.011083	-2.613333	2.624416	0.035837 	0.001972
-78.350000	0.011113	-2.611667	2.622780	0.035780 	0.001972
-78.300000	0.011143	-2.610000	2.621143	0.035722 	0.001973
-78.250000	0.011173	-2.608333	2.619506	0.035665 	0.001974
-78.200000	0.011202	-2.606667	2.617869	0.035607 	0.001974
-78.150000	0.011232	-2.605000	2.616232	0.035548 	0.001975
-78.100000	0.011261	-2.603333	2.614594	0.035490 	0.001976
-78.050000	0.011291	-2.601667	2.612958	0.035431 	0.001976
-78.000000	0.011320	-2.600000	2.611320	0.035372 	0.001977
-77.950000	0.011350	-2.598333	2.609683	0.035312 	0.001977
-77.900000	0.011379	-2.596667	2.608046	0.035253 	0.001978
-77.850000	0.011408	-2.595000	2.606408	0.035193 	0.001979
-77.800000	0.011437	-2.593333	2.604770	0.035133 	0.001979
-77.750000	0.011466	-2.591667	2.603133	0.035072 	0.001980
-77.700000	0.011495	-2.590000	2.601495	0.035011 	0.001981
-77.650000	0.011524	-2.588333	2.599857	0.034950 	0.001981
-77.600000	0.011553	-2.586667	2.598220	0.034889 	0.001982
-77.550000	0.011582	-2.585000	2.596582	0.034827 	0.001982
-77.500000	0.011611	-2.583333	2.594944	0.034765 	0.001983
-77.450000	0.011639	-2.581667	2.593306	0.034703 	0.001984
-77.400000	0.011668	-2.580000	2.591668	0.034641 	0.001984
-77.350000	0.011697	-2.578333	2.590030	0.034578 	0.001985
-77.300000	0.011725	-2.576667	2.588392	0.034515 	0.001986
-77.250000	0.011754	-2.575000	2.586754	0.034452 	0.001986
-77.200000	0.011782	-2.573333	2.585115	0.034388 	0.001987
-77.150000	0.011810	-2.571667	2.583477	0.034324 	0.001987
-77.100000	0.011839	-2.570000	2.581839	0.034260 	0.001988
-77.050000	0.011867	-2.568333	2.580200	0.034196 	0.001989
-77.000000	0.011895	-2.566667	2.578562	0.034131 	0.001989
-76.950000	0.011923	-2.565000	2.576923	0.034066 	0.001990
-76.900000	0.011951	-2.563333	2.575284	0.034001 	0.001991
-76.850000	0.011979	-2.561667	2.573646	0.033935 	0.001991
-76.800000	0.012007	-2.560000	2.572007	0.033870 	0.001992
-76.750000	0.012034	-2.558333	2.570367	0.033803 	0.001992
-76.700000	0.012062	-2.556667	2.568729	0.033737 	0.001993
-76.650000	0.012090	-2.555000	2.567090	0.033670 	0.001994
-76.600000	0.012117	-2.553333	2.565450	0.033603 	0.001994
-76.550000	0.012145	-2.551667	2.563812	0.033536 	0.001995
-76.500000	0.012172	-2.550000	2.562172	0.033469 	0.001996
-76.450000	0.012200	-2.548333	2.560533	0.033401 	0.001996
-76.400000	0.012227	-2.546667	2.558894	0.033333 	0.001997
-76.350000	0.012254	-2.545000	2.557254	0.033264 	0.001998
-76.300000	0.012281	-2.543333	2.555614	0.033196 	0.001998
-76.250000	0.012308	-2.541667	2.553975	0.033127 	0.001999
-76.200000	0.012335	-2.540000	2.552335	0.033058 	0.001999
-76.150000	0.012362	-2.538333	2.550695	0.032988 	0.002000
-76.100000	0.012389	-2.536667	2.549056	0.032918 	0.002001
-76.050000	0.012416	-2.535000	2.547416	0.032848 	0.002001
-76.000000	0.012443	-2.533333	2.545776	0.032778 	0.002002
-75.950000	0.012469	-2.531667	2.544136	0.032707 	0.002003
-75.900000	0.012496	-2.530000	2.542496	0.032636 	0.002003
-75.850000	0.012522	-2.528333	2.540855	0.032565 	0.002004
-75.800000	0.012549	-2.526667	2.539216	0.032494 	0.002005
-75.750000	0.012575	-2.525000	2.537575	0.032422 	0.002005
-75.700000	0.012601	-2.523333	2.535934	0.032350 	0.002006
-75.650000	0.012628	-2.521667	2.534295	0.032277 	0.002007
-75.600000	0.012654	-2.520000	2.532654	0.032205 	0.002007
-75.550000	0.012680	-2.518333	2.531013	0.032132 	0.002008
-75.500000	0.012706	-2.516667	2.529373	0.032059 	0.002009
-75.450000	0.012732	-2.515000	2.527732	0.031985 	0.002009
-75.400000	0.012757	-2.513333	2.526090	0.031911 	0.002010
-75.350000	0.012783	-2.511667	2.524450	0.031837 	0.002010
-75.300000	0.012809	-2.510000	2.522809	0.031763 	0.002011
-75.250000	0.012834	-2.508333	2.521167	0.031688 	0.002012
-75.200000	0.012860	-2.506667	2.519527	0.031613 	0.002012
-75.150000	0.012885	-2.505000	2.517885	0.031538 	0.002013
-75.100000	0.012911	-2.503333	2.516244	0.031463 	0.002014
-75.050000	0.012936	-2.501667	2.514603	0.031387 	0.002014
-75.000000	0.012961	-2.500000	2.512961	0.031311 	0.002015
-74.950000	0.012986	-2.498333	2.511319	0.031234 	0.002016
-74.900000	0.013011	-2.496667	2.509678	0.031158 	0.002016
-74.850000	0.013036	-2.495000	2.508036	0.031081 	0.002017
-74.800000	0.013061	-2.493333	2.506394	0.031003 	0.002018
-74.750000	0.013086	-2.491667	2.504753	0.030926 	0.002018
-74.700000	0.013111	-2.490000	2.503111	0.030848 	0.002019
-74.650000	0.013135	-2.488333	2.501468	0.030770 	0.002020
-74.600000	0.013160	-2.486667	2.499827	0.030692 	0.002020
-74.550000	0.013184	-2.485000	2.498184	0.030613 	0.002021
-74.500000	0.013209	-2.483333	2.496542	0.030534 	0.002022
-74.450000	0.013233	-2.481667	2.494900	0.030455 	0.002022
-74.400000	0.013257	-2.480000	2.493257	0.030375 	0.002023
-74.350000	0.013281	-2.478333	2.491614	0.030295 	0.002024