VARIABLES = X,Ksi,B,H,U,tau 
ZONE T="Time 35.000000", I=2200, DATAPACKING=POINT
-100.000000	0.009755	-3.333333	3.343088	-0.023724 	0.001747
-99.950000	0.005767	-3.331667	3.337434	-0.017004 	0.001749
-99.900000	0.007391	-3.330000	3.337391	-0.019899 	0.001749
-99.850000	0.006623	-3.328333	3.334956	-0.018696 	0.001749
-99.800000	0.006875	-3.326667	3.333542	-0.019240 	0.001750
-99.750000	0.006692	-3.325000	3.331692	-0.019040 	0.001750
-99.700000	0.006695	-3.323333	3.330028	-0.019156 	0.001751
-99.650000	0.006618	-3.321667	3.328285	-0.019137 	0.001751
-99.600000	0.006575	-3.320000	3.326575	-0.019176 	0.001751
-99.550000	0.006518	-3.318333	3.324851	-0.019190 	0.001752
-99.500000	0.006466	-3.316667	3.323133	-0.019215 	0.001752
-99.450000	0.006412	-3.315000	3.321412	-0.019235 	0.001753
-99.400000	0.006359	-3.313333	3.319692	-0.019257 	0.001753
-99.350000	0.006306	-3.311667	3.317973	-0.019278 	0.001754
-99.300000	0.006253	-3.310000	3.316253	-0.019299 	0.001754
-99.250000	0.006199	-3.308333	3.314532	-0.019320 	0.001755
-99.200000	0.006146	-3.306667	3.312813	-0.019341 	0.001755
-99.150000	0.006092	-3.305000	3.311092	-0.019362 	0.001756
-99.100000	0.006038	-3.303333	3.309371	-0.019383 	0.001756
-99.050000	0.005985	-3.301667	3.307652	-0.019403 	0.001756
-99.000000	0.005931	-3.300000	3.305931	-0.019424 	0.001757
-98.950000	0.005877	-3.298333	3.304210	-0.019444 	0.001757
-98.900000	0.005823	-3.296667	3.302490	-0.019465 	0.001758
-98.850000	0.005770	-3.295000	3.300770	-0.019485 	0.001758
-98.800000	0.005716	-3.293333	3.299049	-0.019505 	0.001759
-98.750000	0.005662	-3.291667	3.297329	-0.019526 	0.001759
-98.700000	0.005608	-3.290000	3.295608	-0.019546 	0.001760
-98.650000	0.005554	-3.288333	3.293887	-0.019566 	0.001760
-98.600000	0.005499	-3.286667	3.292166	-0.019586 	0.001761
-98.550000	0.005445	-3.285000	3.290445	-0.019606 	0.001761
-98.500000	0.005391	-3.283333	3.288724	-0.019625 	0.001761
-98.450000	0.005337	-3.281667	3.287004	-0.019645 	0.001762
-98.400000	0.005282	-3.280000	3.285282	-0.019665 	0.001762
-98.350000	0.005228	-3.278333	3.283561	-0.019684 	0.001763
-98.300000	0.005173	-3.276667	3.281840	-0.019704 	0.001763
-98.250000	0.005119	-3.275000	3.280119	-0.019723 	0.001764
-98.200000	0.005064	-3.273333	3.278397	-0.019742 	0.001764
-98.150000	0.005010	-3.271667	3.276677	-0.019762 	0.001765
-98.100000	0.004955	-3.270000	3.274955	-0.019781 	0.001765
-98.050000	0.004900	-3.268333	3.273233	-0.019800 	0.001766
-98.000000	0.004846	-3.266667	3.271513	-0.019819 	0.001766
-97.950000	0.004791	-3.265000	3.269791	-0.019838 	0.001767
-97.900000	0.004736	-3.263333	3.268069	-0.019856 	0.001767
-97.850000	0.004681	-3.261667	3.266348	-0.019875 	0.001767
-97.800000	0.004626	-3.260000	3.264626	-0.019894 	0.001768
-97.750000	0.004571	-3.258333	3.262904	-0.019912 	0.001768
-97.700000	0.004516	-3.256667	3.261183	-0.019931 	0.001769
-97.650000	0.004461	-3.255000	3.259461	-0.019949 	0.001769
-97.600000	0.004406	-3.253333	3.257739	-0.019967 	0.001770
-97.550000	0.004351	-3.251667	3.256018	-0.019985 	0.001770
-97.500000	0.004296	-3.250000	3.254296	-0.020004 	0.001771
-97.450000	0.004240	-3.248333	3.252573	-0.020022 	0.001771
-97.400000	0.004185	-3.246667	3.250852	-0.020039 	0.001772
-97.350000	0.004130	-3.245000	3.249130	-0.020057 	0.001772
-97.300000	0.004074	-3.243333	3.247407	-0.020075 	0.001773
-97.250000	0.004019	-3.241667	3.245686	-0.020093 	0.001773
-97.200000	0.003963	-3.240000	3.243963	-0.020110 	0.001774
-97.150000	0.003908	-3.238333	3.242241	-0.020128 	0.001774
-97.100000	0.003852	-3.236667	3.240519	-0.020145 	0.001775
-97.050000	0.003797	-3.235000	3.238797	-0.020162 	0.001775
-97.000000	0.003741	-3.233333	3.237074	-0.020180 	0.001775
-96.950000	0.003685	-3.231667	3.235352	-0.020197 	0.001776
-96.900000	0.003630	-3.230000	3.233630	-0.020214 	0.001776
-96.850000	0.003574	-3.228333	3.231907	-0.020231 	0.001777
-96.800000	0.003518	-3.226667	3.230185	-0.020248 	0.001777
-96.750000	0.003462	-3.225000	3.228462	-0.020264 	0.001778
-96.700000	0.003406	-3.223333	3.226739	-0.020281 	0.001778
-96.650000	0.003350	-3.221667	3.225017	-0.020298 	0.001779
-96.600000	0.003294	-3.220000	3.223294	-0.020314 	0.001779
-96.550000	0.003238	-3.218333	3.221571	-0.020331 	0.001780
-96.500000	0.003182	-3.216667	3.219849	-0.020347 	0.001780
-96.450000	0.003126	-3.215000	3.218126	-0.020363 	0.001781
-96.400000	0.003070	-3.213333	3.216403	-0.020379 	0.001781
-96.350000	0.003014	-3.211667	3.214681	-0.020395 	0.001782
-96.300000	0.002958	-3.210000	3.212958	-0.020411 	0.001782
-96.250000	0.002901	-3.208333	3.211234	-0.020427 	0.001783
-96.200000	0.002845	-3.206667	3.209512	-0.020443 	0.001783
-96.150000	0.002789	-3.205000	3.207789	-0.020458 	0.001784
-96.100000	0.002732	-3.203333	3.206065	-0.020474 	0.001784
-96.050000	0.002676	-3.201667	3.204343	-0.020490 	0.001785
-96.000000	0.002620	-3.200000	3.202620	-0.020505 	0.001785
-95.950000	0.002563	-3.198333	3.200896	-0.020520 	0.001785
-95.900000	0.002507	-3.196667	3.199174	-0.020535 	0.001786
-95.850000	0.002450	-3.195000	3.197450	-0.020550 	0.001786
-95.800000	0.002393	-3.193333	3.195726	-0.020565 	0.001787
-95.750000	0.002337	-3.191667	3.194004	-0.020580 	0.001787
-95.700000	0.002280	-3.190000	3.192280	-0.020595 	0.001788
-95.650000	0.002223	-3.188333	3.190556	-0.020610 	0.001788
-95.600000	0.002167	-3.186667	3.188834	-0.020625 	0.001789
-95.550000	0.002110	-3.185000	3.187110	-0.020639 	0.001789
-95.500000	0.002053	-3.183333	3.185386	-0.020654 	0.001790
-95.450000	0.001996	-3.181667	3.183663	-0.020668 	0.001790
-95.400000	0.001939	-3.180000	3.181939	-0.020682 	0.001791
-95.350000	0.001883	-3.178333	3.180216	-0.020696 	0.001791
-95.300000	0.001826	-3.176667	3.178493	-0.020710 	0.001792
-95.250000	0.001769	-3.175000	3.176769	-0.020724 	0.001792
-95.200000	0.001712	-3.173333	3.175045	-0.020738 	0.001793
-95.150000	0.001655	-3.171667	3.173322	-0.020752 	0.001793
-95.100000	0.001598	-3.170000	3.171598	-0.020766 	0.001794
-95.050000	0.001540	-3.168333	3.169873	-0.020779 	0.001794
-95.000000	0.001483	-3.166667	3.168150	-0.020793 	0.001795
-94.950000	0.001426	-3.165000	3.166426	-0.020806 	0.001795
-94.900000	0.001369	-3.163333	3.164702	-0.020819 	0.001796
-94.850000	0.001312	-3.161667	3.162979	-0.020833 	0.001796
-94.800000	0.001255	-3.160000	3.161255	-0.020846 	0.001797
-94.750000	0.001197	-3.158333	3.159530	-0.020859 	0.001797
-94.700000	0.001140	-3.156667	3.157807	-0.020871 	0.001798
-94.650000	0.001083	-3.155000	3.156083	-0.020884 	0.001798
-94.600000	0.001025	-3.153333	3.154358	-0.020897 	0.001799
-94.550000	0.000968	-3.151667	3.152635	-0.020909 	0.001799
-94.500000	0.000910	-3.150000	3.150910	-0.020922 	0.001800
-94.450000	0.000853	-3.148333	3.149186	-0.020934 	0.001800
-94.400000	0.000796	-3.146667	3.147463	-0.020947 	0.001801
-94.350000	0.000738	-3.145000	3.145738	-0.020959 	0.001801
-94.300000	0.000680	-3.143333	3.144013	-0.020971 	0.001802
-94.250000	0.000623	-3.141667	3.142290	-0.020983 	0.001802
-94.200000	0.000565	-3.140000	3.140565	-0.020995 	0.001803
-94.150000	0.000508	-3.138333	3.138841	-0.021006 	0.001803
-94.100000	0.000450	-3.136667	3.137117	-0.021018 	0.001804
-94.050000	0.000392	-3.135000	3.135392	-0.021030 	0.001804
-94.000000	0.000335	-3.133333	3.133668	-0.021041 	0.001805
-93.950000	0.000277	-3.131667	3.131944	-0.021052 	0.001805
-93.900000	0.000219	-3.130000	3.130219	-0.021064 	0.001806
-93.850000	0.000162	-3.128333	3.128495	-0.021075 	0.001806
-93.800000	0.000104	-3.126667	3.126771	-0.021086 	0.001807
-93.750000	0.000046	-3.125000	3.125046	-0.021097 	0.001807
-93.700000	-0.000012	-3.123333	3.123321	-0.021108 	0.001808
-93.650000	-0.000070	-3.121667	3.121597	-0.021118 	0.001808
-93.600000	-0.000128	-3.120000	3.119872	-0.021129 	0.001809
-93.550000	-0.000185	-3.118333	3.118148	-0.021140 	0.001809
-93.500000	-0.000243	-3.116667	3.116424	-0.021150 	0.001810
-93.450000	-0.000301	-3.115000	3.114699	-0.021160 	0.001810
-93.400000	-0.000359	-3.113333	3.112974	-0.021170 	0.001811
-93.350000	-0.000417	-3.111667	3.111250	-0.021181 	0.001811
-93.300000	-0.000475	-3.110000	3.109525	-0.021190 	0.001812
-93.250000	-0.000533	-3.108333	3.107800	-0.021200 	0.001812
-93.200000	-0.000591	-3.106667	3.106076	-0.021210 	0.001813
-93.150000	-0.000649	-3.105000	3.104351	-0.021220 	0.001813
-93.100000	-0.000708	-3.103333	3.102625	-0.021229 	0.001814
-93.050000	-0.000766	-3.101667	3.100901	-0.021239 	0.001814
-93.000000	-0.000824	-3.100000	3.099176	-0.021248 	0.001815
-92.950000	-0.000882	-3.098333	3.097451	-0.021257 	0.001815
-92.900000	-0.000940	-3.096667	3.095727	-0.021266 	0.001816
-92.850000	-0.000998	-3.095000	3.094002	-0.021275 	0.001816
-92.800000	-0.001056	-3.093333	3.092277	-0.021284 	0.001817
-92.750000	-0.001115	-3.091667	3.090552	-0.021293 	0.001817
-92.700000	-0.001173	-3.090000	3.088827	-0.021302 	0.001818
-92.650000	-0.001231	-3.088333	3.087102	-0.021310 	0.001818
-92.600000	-0.001289	-3.086667	3.085378	-0.021319 	0.001819
-92.550000	-0.001348	-3.085000	3.083652	-0.021327 	0.001819
-92.500000	-0.001406	-3.083333	3.081927	-0.021335 	0.001820
-92.450000	-0.001464	-3.081667	3.080203	-0.021344 	0.001820
-92.400000	-0.001523	-3.080000	3.078477	-0.021352 	0.001821
-92.350000	-0.001581	-3.078333	3.076752	-0.021359 	0.001821
-92.300000	-0.001639	-3.076667	3.075028	-0.021367 	0.001822
-92.250000	-0.001698	-3.075000	3.073302	-0.021375 	0.001822
-92.200000	-0.001756	-3.073333	3.071577	-0.021382 	0.001823
-92.150000	-0.001814	-3.071667	3.069853	-0.021390 	0.001823
-92.100000	-0.001873	-3.070000	3.068127	-0.021397 	0.001824
-92.050000	-0.001931	-3.068333	3.066402	-0.021405 	0.001824
-92.000000	-0.001990	-3.066667	3.064677	-0.021412 	0.001825
-91.950000	-0.002048	-3.065000	3.062952	-0.021419 	0.001825
-91.900000	-0.002107	-3.063333	3.061226	-0.021426 	0.001826
-91.850000	-0.002165	-3.061667	3.059502	-0.021432 	0.001826
-91.800000	-0.002224	-3.060000	3.057776	-0.021439 	0.001827
-91.750000	-0.002282	-3.058333	3.056051	-0.021446 	0.001827
-91.700000	-0.002341	-3.056667	3.054326	-0.021452 	0.001828
-91.650000	-0.002399	-3.055000	3.052601	-0.021458 	0.001828
-91.600000	-0.002458	-3.053333	3.050875	-0.021464 	0.001829
-91.550000	-0.002516	-3.051667	3.049151	-0.021471 	0.001829
-91.500000	-0.002575	-3.050000	3.047425	-0.021477 	0.001830
-91.450000	-0.002633	-3.048333	3.045700	-0.021482 	0.001830
-91.400000	-0.002692	-3.046667	3.043975	-0.021488 	0.001831
-91.350000	-0.002750	-3.045000	3.042250	-0.021494 	0.001831
-91.300000	-0.002809	-3.043333	3.040524	-0.021499 	0.001832
-91.250000	-0.002868	-3.041667	3.038799	-0.021505 	0.001832
-91.200000	-0.002926	-3.040000	3.037074	-0.021510 	0.001833
-91.150000	-0.002985	-3.038333	3.035348	-0.021515 	0.001834
-91.100000	-0.003043	-3.036667	3.033624	-0.021520 	0.001834
-91.050000	-0.003102	-3.035000	3.031898	-0.021525 	0.001835
-91.000000	-0.003161	-3.033333	3.030172	-0.021530 	0.001835
-90.950000	-0.003219	-3.031667	3.028448	-0.021534 	0.001836
-90.900000	-0.003278	-3.030000	3.026722	-0.021539 	0.001836
-90.850000	-0.003336	-3.028333	3.024997	-0.021543 	0.001837
-90.800000	-0.003395	-3.026667	3.023272	-0.021548 	0.001837
-90.750000	-0.003454	-3.025000	3.021546	-0.021552 	0.001838
-90.700000	-0.003512	-3.023333	3.019821	-0.021556 	0.001838
-90.650000	-0.003571	-3.021667	3.018096	-0.021560 	0.001839
-90.600000	-0.003630	-3.020000	3.016370	-0.021564 	0.001839
-90.550000	-0.003688	-3.018333	3.014645	-0.021567 	0.001840
-90.500000	-0.003747	-3.016667	3.012920	-0.021571 	0.001840
-90.450000	-0.003806	-3.015000	3.011194	-0.021574 	0.001841
-90.400000	-0.003864	-3.013333	3.009469	-0.021578 	0.001841
-90.350000	-0.003923	-3.011667	3.007744	-0.021581 	0.001842
-90.300000	-0.003982	-3.010000	3.006018	-0.021584 	0.001842
-90.250000	-0.004040	-3.008333	3.004293	-0.021587 	0.001843
-90.200000	-0.004099	-3.006667	3.002568	-0.021590 	0.001843
-90.150000	-0.004158	-3.005000	3.000842	-0.021593 	0.001844
-90.100000	-0.004216	-3.003333	2.999117	-0.021595 	0.001845
-90.050000	-0.004275	-3.001667	2.997392	-0.021598 	0.001845
-90.000000	-0.004334	-3.000000	2.995666	-0.021600 	0.001846
-89.950000	-0.004393	-2.998333	2.993940	-0.021602 	0.001846
-89.900000	-0.004451	-2.996667	2.992216	-0.021605 	0.001847
-89.850000	-0.004510	-2.995000	2.990490	-0.021606 	0.001847
-89.800000	-0.004569	-2.993333	2.988764	-0.021608 	0.001848
-89.750000	-0.004627	-2.991667	2.987040	-0.021610 	0.001848
-89.700000	-0.004686	-2.990000	2.985314	-0.021612 	0.001849
-89.650000	-0.004745	-2.988333	2.983588	-0.021613 	0.001849
-89.600000	-0.004803	-2.986667	2.981864	-0.021615 	0.001850
-89.550000	-0.004862	-2.985000	2.980138	-0.021616 	0.001850
-89.500000	-0.004920	-2.983333	2.978413	-0.021617 	0.001851
-89.450000	-0.004979	-2.981667	2.976688	-0.021618 	0.001851
-89.400000	-0.005038	-2.980000	2.974962	-0.021619 	0.001852
-89.350000	-0.005096	-2.978333	2.973237	-0.021619 	0.001853
-89.300000	-0.005155	-2.976667	2.971512	-0.021620 	0.001853
-89.250000	-0.005214	-2.975000	2.969786	-0.021621 	0.001854
-89.200000	-0.005272	-2.973333	2.968061	-0.021621 	0.001854
-89.150000	-0.005331	-2.971667	2.966336	-0.021621 	0.001855
-89.100000	-0.005390	-2.970000	2.964610	-0.021621 	0.001855
-89.050000	-0.005448	-2.968333	2.962885	-0.021621 	0.001856
-89.000000	-0.005507	-2.966667	2.961160	-0.021621 	0.001856
-88.950000	-0.005565	-2.965000	2.959435	-0.021621 	0.001857
-88.900000	-0.005624	-2.963333	2.957709	-0.021620 	0.001857
-88.850000	-0.005682	-2.961667	2.955985	-0.021620 	0.001858
-88.800000	-0.005741	-2.960000	2.954259	-0.021619 	0.001859
-88.750000	-0.005800	-2.958333	2.952533	-0.021618 	0.001859
-88.700000	-0.005858	-2.956667	2.950809	-0.021617 	0.001860
-88.650000	-0.005917	-2.955000	2.949083	-0.021616 	0.001860
-88.600000	-0.005975	-2.953333	2.947358	-0.021615 	0.001861
-88.550000	-0.006034	-2.951667	2.945633	-0.021614 	0.001861
-88.500000	-0.006092	-2.950000	2.943908	-0.021612 	0.001862
-88.450000	-0.006151	-2.948333	2.942182	-0.021611 	0.001862
-88.400000	-0.006209	-2.946667	2.940458	-0.021609 	0.001863
-88.350000	-0.006268	-2.945000	2.938732	-0.021607 	0.001863
-88.300000	-0.006326	-2.943333	2.937007	-0.021605 	0.001864
-88.250000	-0.006385	-2.941667	2.935282	-0.021603 	0.001864
-88.200000	-0.006443	-2.940000	2.933557	-0.021601 	0.001865
-88.150000	-0.006501	-2.938333	2.931832	-0.021598 	0.001866
-88.100000	-0.006560	-2.936667	2.930107	-0.021596 	0.001866
-88.050000	-0.006618	-2.935000	2.928382	-0.021593 	0.001867
-88.000000	-0.006677	-2.933333	2.926656	-0.021590 	0.001867
-87.950000	-0.006735	-2.931667	2.924932	-0.021587 	0.001868
-87.900000	-0.006793	-2.930000	2.923207	-0.021584 	0.001868
-87.850000	-0.006852	-2.928333	2.921481	-0.021581 	0.001869
-87.800000	-0.006910	-2.926667	2.919757	-0.021578 	0.001869
-87.750000	-0.006968	-2.925000	2.918032	-0.021574 	0.001870
-87.700000	-0.007026	-2.923333	2.916307	-0.021570 	0.001871
-87.650000	-0.007085	-2.921667	2.914582	-0.021567 	0.001871
-87.600000	-0.007143	-2.920000	2.912857	-0.021563 	0.001872
-87.550000	-0.007201	-2.918333	2.911132	-0.021559 	0.001872
-87.500000	-0.007259	-2.916667	2.909408	-0.021555 	0.001873
-87.450000	-0.007318	-2.915000	2.907682	-0.021550 	0.001873
-87.400000	-0.007376	-2.913333	2.905957	-0.021546 	0.001874
-87.350000	-0.007434	-2.911667	2.904233	-0.021541 	0.001874
-87.300000	-0.007492	-2.910000	2.902508	-0.021537 	0.001875
-87.250000	-0.007550	-2.908333	2.900783	-0.021532 	0.001876
-87.200000	-0.007608	-2.906667	2.899059	-0.021527 	0.001876
-87.150000	-0.007666	-2.905000	2.897334	-0.021522 	0.001877
-87.100000	-0.007724	-2.903333	2.895609	-0.021517 	0.001877
-87.050000	-0.007782	-2.901667	2.893885	-0.021511 	0.001878
-87.000000	-0.007840	-2.900000	2.892160	-0.021506 	0.001878
-86.950000	-0.007898	-2.898333	2.890435	-0.021500 	0.001879
-86.900000	-0.007956	-2.896667	2.888711	-0.021494 	0.001879
-86.850000	-0.008014	-2.895000	2.886986	-0.021488 	0.001880
-86.800000	-0.008072	-2.893333	2.885261	-0.021482 	0.001881
-86.750000	-0.008130	-2.891667	2.883537	-0.021476 	0.001881
-86.700000	-0.008188	-2.890000	2.881812	-0.021470 	0.001882
-86.650000	-0.008246	-2.888333	2.880087	-0.021463 	0.001882
-86.600000	-0.008304	-2.886667	2.878363	-0.021457 	0.001883
-86.550000	-0.008361	-2.885000	2.876639	-0.021450 	0.001883
-86.500000	-0.008419	-2.883333	2.874914	-0.021443 	0.001884
-86.450000	-0.008477	-2.881667	2.873190	-0.021436 	0.001885
-86.400000	-0.008535	-2.880000	2.871465	-0.021429 	0.001885
-86.350000	-0.008592	-2.878333	2.869741	-0.021421 	0.001886
-86.300000	-0.008650	-2.876667	2.868017	-0.021414 	0.001886
-86.250000	-0.008708	-2.875000	2.866292	-0.021406 	0.001887
-86.200000	-0.008765	-2.873333	2.864568	-0.021399 	0.001887
-86.150000	-0.008823	-2.871667	2.862844	-0.021391 	0.001888
-86.100000	-0.008880	-2.870000	2.861120	-0.021383 	0.001889
-86.050000	-0.008938	-2.868333	2.859395	-0.021375 	0.001889
-86.000000	-0.008995	-2.866667	2.857672	-0.021366 	0.001890
-85.950000	-0.009053	-2.865000	2.855947	-0.021358 	0.001890
-85.900000	-0.009110	-2.863333	2.854223	-0.021349 	0.001891
-85.850000	-0.009168	-2.861667	2.852499	-0.021340 	0.001891
-85.800000	-0.009225	-2.860000	2.850775	-0.021331 	0.001892
-85.750000	-0.009282	-2.858333	2.849051	-0.021322 	0.001893
-85.700000	-0.009340	-2.856667	2.847327	-0.021313 	0.001893
-85.650000	-0.009397	-2.855000	2.845603	-0.021304 	0.001894
-85.600000	-0.009454	-2.853333	2.843879	-0.021294 	0.001894
-85.550000	-0.009512	-2.851667	2.842155	-0.021285 	0.001895
-85.500000	-0.009569	-2.850000	2.840431	-0.021275 	0.001895
-85.450000	-0.009626	-2.848333	2.838707	-0.021265 	0.001896
-85.400000	-0.009683	-2.846667	2.836984	-0.021255 	0.001897
-85.350000	-0.009740	-2.845000	2.835260	-0.021245 	0.001897
-85.300000	-0.009797	-2.843333	2.833536	-0.021235 	0.001898
-85.250000	-0.009854	-2.841667	2.831813	-0.021224 	0.001898
-85.200000	-0.009911	-2.840000	2.830089	-0.021213 	0.001899
-85.150000	-0.009968	-2.838333	2.828365	-0.021203 	0.001899
-85.100000	-0.010025	-2.836667	2.826642	-0.021192 	0.001900
-85.050000	-0.010082	-2.835000	2.824918	-0.021181 	0.001901
-85.000000	-0.010139	-2.833333	2.823194	-0.021169 	0.001901
-84.950000	-0.010195	-2.831667	2.821472	-0.021158 	0.001902
-84.900000	-0.010252	-2.830000	2.819748	-0.021147 	0.001902
-84.850000	-0.010309	-2.828333	2.818024	-0.021135 	0.001903
-84.800000	-0.010365	-2.826667	2.816302	-0.021123 	0.001903
-84.750000	-0.010422	-2.825000	2.814578	-0.021111 	0.001904
-84.700000	-0.010479	-2.823333	2.812854	-0.021099 	0.001905
-84.650000	-0.010535	-2.821667	2.811132	-0.021087 	0.001905
-84.600000	-0.010592	-2.820000	2.809408	-0.021074 	0.001906
-84.550000	-0.010648	-2.818333	2.807685	-0.021062 	0.001906
-84.500000	-0.010705	-2.816667	2.805962	-0.021049 	0.001907
-84.450000	-0.010761	-2.815000	2.804239	-0.021036 	0.001908
-84.400000	-0.010817	-2.813333	2.802516	-0.021023 	0.001908
-84.350000	-0.010874	-2.811667	2.800793	-0.021010 	0.001909
-84.300000	-0.010930	-2.810000	2.799070	-0.020997 	0.001909
-84.250000	-0.010986	-2.808333	2.797347	-0.020984 	0.001910
-84.200000	-0.011042	-2.806667	2.795625	-0.020970 	0.001911
-84.150000	-0.011099	-2.805000	2.793901	-0.020956 	0.001911
-84.100000	-0.011155	-2.803333	2.792178	-0.020942 	0.001912
-84.050000	-0.011211	-2.801667	2.790456	-0.020928 	0.001912
-84.000000	-0.011267	-2.800000	2.788733	-0.020914 	0.001913
-83.950000	-0.011323	-2.798333	2.787010	-0.020900 	0.001913
-83.900000	-0.011379	-2.796667	2.785288	-0.020885 	0.001914
-83.850000	-0.011434	-2.795000	2.783566	-0.020871 	0.001915
-83.800000	-0.011490	-2.793333	2.781843	-0.020856 	0.001915
-83.750000	-0.011546	-2.791667	2.780121	-0.020841 	0.001916
-83.700000	-0.011602	-2.790000	2.778398	-0.020826 	0.001916
-83.650000	-0.011657	-2.788333	2.776676	-0.020811 	0.001917
-83.600000	-0.011713	-2.786667	2.774954	-0.020795 	0.001918
-83.550000	-0.011769	-2.785000	2.773231	-0.020780 	0.001918
-83.500000	-0.011824	-2.783333	2.771509	-0.020764 	0.001919
-83.450000	-0.011880	-2.781667	2.769787	-0.020748 	0.001919
-83.400000	-0.011935	-2.780000	2.768065	-0.020732 	0.001920
-83.350000	-0.011990	-2.778333	2.766343	-0.020716 	0.001921
-83.300000	-0.012046	-2.776667	2.764621	-0.020700 	0.001921
-83.250000	-0.012101	-2.775000	2.762899	-0.020683 	0.001922
-83.200000	-0.012156	-2.773333	2.761177	-0.020667 	0.001922
-83.150000	-0.012211	-2.771667	2.759456	-0.020650 	0.001923
-83.100000	-0.012267	-2.770000	2.757733	-0.020633 	0.001924
-83.050000	-0.012322	-2.768333	2.756011	-0.020616 	0.001924
-83.000000	-0.012377	-2.766667	2.754290	-0.020599 	0.001925
-82.950000	-0.012432	-2.765000	2.752568	-0.020581 	0.001925
-82.900000	-0.012487	-2.763333	2.750846	-0.020564 	0.001926
-82.850000	-0.012541	-2.761667	2.749126	-0.020546 	0.001927
-82.800000	-0.012596	-2.760000	2.747404	-0.020528 	0.001927
-82.750000	-0.012651	-2.758333	2.745682	-0.020510 	0.001928
-82.700000	-0.012706	-2.756667	2.743961	-0.020492 	0.001928
-82.650000	-0.012760	-2.755000	2.742240	-0.020474 	0.001929
-82.600000	-0.012815	-2.753333	2.740518	-0.020455 	0.001930
-82.550000	-0.012869	-2.751667	2.738798	-0.020437 	0.001930
-82.500000	-0.012924	-2.750000	2.737076	-0.020418 	0.001931
-82.450000	-0.012978	-2.748333	2.735355	-0.020399 	0.001931
-82.400000	-0.013033	-2.746667	2.733634	-0.020380 	0.001932
-82.350000	-0.013087	-2.745000	2.731913	-0.020361 	0.001933
-82.300000	-0.013141	-2.743333	2.730192	-0.020341 	0.001933
-82.250000	-0.013195	-2.741667	2.728472	-0.020322 	0.001934
-82.200000	-0.013249	-2.740000	2.726751	-0.020302 	0.001934
-82.150000	-0.013304	-2.738333	2.725029	-0.020282 	0.001935
-82.100000	-0.013358	-2.736667	2.723309	-0.020262 	0.001936
-82.050000	-0.013411	-2.735000	2.721589	-0.020242 	0.001936
-82.000000	-0.013465	-2.733333	2.719868	-0.020222 	0.001937
-81.950000	-0.013519	-2.731667	2.718148	-0.020201 	0.001938
-81.900000	-0.013573	-2.730000	2.716427	-0.020181 	0.001938
-81.850000	-0.013627	-2.728333	2.714706	-0.020160 	0.001939
-81.800000	-0.013680	-2.726667	2.712987	-0.020139 	0.001939
-81.750000	-0.013734	-2.725000	2.711266	-0.020118 	0.001940
-81.700000	-0.013787	-2.723333	2.709546	-0.020097 	0.001941
-81.650000	-0.013841	-2.721667	2.707826	-0.020075 	0.001941
-81.600000	-0.013894	-2.720000	2.706106	-0.020054 	0.001942
-81.550000	-0.013947	-2.718333	2.704386	-0.020032 	0.001942
-81.500000	-0.014001	-2.716667	2.702666	-0.020010 	0.001943
-81.450000	-0.014054	-2.715000	2.700946	-0.019988 	0.001944
-81.400000	-0.014107	-2.713333	2.699226	-0.019966 	0.001944
-81.350000	-0.014160	-2.711667	2.697507	-0.019943 	0.001945
-81.300000	-0.014213	-2.710000	2.695787	-0.019921 	0.001946
-81.250000	-0.014266	-2.708333	2.694067	-0.019898 	0.001946
-81.200000	-0.014319	-2.706667	2.692348	-0.019875 	0.001947
-81.150000	-0.014371	-2.705000	2.690629	-0.019852 	0.001947
-81.100000	-0.014424	-2.703333	2.688909	-0.019829 	0.001948
-81.050000	-0.014477	-2.701667	2.687190	-0.019806 	0.001949
-81.000000	-0.014529	-2.700000	2.685471	-0.019782 	0.001949
-80.950000	-0.014582	-2.698333	2.683751	-0.019759 	0.001950
-80.900000	-0.014634	-2.696667	2.682033	-0.019735 	0.001951
-80.850000	-0.014687	-2.695000	2.680313	-0.019711 	0.001951
-80.800000	-0.014739	-2.693333	2.678594	-0.019687 	0.001952
-80.750000	-0.014791	-2.691667	2.676876	-0.019663 	0.001952
-80.700000	-0.014843	-2.690000	2.675157	-0.019638 	0.001953
-80.650000	-0.014895	-2.688333	2.673438	-0.019614 	0.001954
-80.600000	-0.014947	-2.686667	2.671720	-0.019589 	0.001954
-80.550000	-0.014999	-2.685000	2.670001	-0.019564 	0.001955
-80.500000	-0.015051	-2.683333	2.668282	-0.019539 	0.001956
-80.450000	-0.015103	-2.681667	2.666564	-0.019513 	0.001956
-80.400000	-0.015155	-2.680000	2.664845	-0.019488 	0.001957
-80.350000	-0.015206	-2.678333	2.663127	-0.019463 	0.001957
-80.300000	-0.015258	-2.676667	2.661409	-0.019437 	0.001958
-80.250000	-0.015309	-2.675000	2.659691	-0.019411 	0.001959
-80.200000	-0.015361	-2.673333	2.657972	-0.019385 	0.001959
-80.150000	-0.015412	-2.671667	2.656255	-0.019359 	0.001960
-80.100000	-0.015463	-2.670000	2.654537	-0.019332 	0.001961
-80.050000	-0.015515	-2.668333	2.652818	-0.019306 	0.001961
-80.000000	-0.015566	-2.666667	2.651101	-0.019279 	0.001962
-79.950000	-0.015617	-2.665000	2.649383	-0.019252 	0.001963
-79.900000	-0.015668	-2.663333	2.647665	-0.019225 	0.001963
-79.850000	-0.015718	-2.661667	2.645949	-0.019198 	0.001964
-79.800000	-0.015769	-2.660000	2.644231	-0.019171 	0.001964
-79.750000	-0.015820	-2.658333	2.642513	-0.019143 	0.001965
-79.700000	-0.015871	-2.656667	2.640796	-0.019116 	0.001966
-79.650000	-0.015921	-2.655000	2.639079	-0.019088 	0.001966
-79.600000	-0.015972	-2.653333	2.637361	-0.019060 	0.001967
-79.550000	-0.016022	-2.651667	2.635645	-0.019032 	0.001968
-79.500000	-0.016072	-2.650000	2.633928	-0.019003 	0.001968
-79.450000	-0.016122	-2.648333	2.632211	-0.018975 	0.001969
-79.400000	-0.016173	-2.646667	2.630494	-0.018946 	0.001970
-79.350000	-0.016223	-2.645000	2.628777	-0.018917 	0.001970
-79.300000	-0.016273	-2.643333	2.627060	-0.018888 	0.001971
-79.250000	-0.016322	-2.641667	2.625345	-0.018859 	0.001971
-79.200000	-0.016372	-2.640000	2.623628	-0.018830 	0.001972
-79.150000	-0.016422	-2.638333	2.621911	-0.018801 	0.001973
-79.100000	-0.016472	-2.636667	2.620195	-0.018771 	0.001973
-79.050000	-0.016521	-2.635000	2.618479	-0.018741 	0.001974
-79.000000	-0.016571	-2.633333	2.616762	-0.018711 	0.001975
-78.950000	-0.016620	-2.631667	2.615047	-0.018681 	0.001975
-78.900000	-0.016669	-2.630000	2.613331	-0.018651 	0.001976
-78.850000	-0.016718	-2.628333	2.611615	-0.018620 	0.001977
-78.800000	-0.016768	-2.626667	2.609899	-0.018590 	0.001977
-78.750000	-0.016817	-2.625000	2.608183	-0.018559 	0.001978
-78.700000	-0.016866	-2.623333	2.606467	-0.018528 	0.001979
-78.650000	-0.016914	-2.621667	2.604753	-0.018497 	0.001979
-78.600000	-0.016963	-2.620000	2.603037	-0.018466 	0.001980
-78.550000	-0.017012	-2.618333	2.601321	-0.018434 	0.001981
-78.500000	-0.017060	-2.616667	2.599607	-0.018403 	0.001981
-78.450000	-0.017109	-2.615000	2.597891	-0.018371 	0.001982
-78.400000	-0.017157	-2.613333	2.596176	-0.018339 	0.001983
-78.350000	-0.017206	-2.611667	2.594461	-0.018307 	0.001983
-78.300000	-0.017254	-2.610000	2.592746	-0.018275 	0.001984
-78.250000	-0.017302	-2.608333	2.591031	-0.018243 	0.001984
-78.200000	-0.017350	-2.606667	2.589317	-0.018210 	0.001985
-78.150000	-0.017398	-2.605000	2.587602	-0.018177 	0.001986
-78.100000	-0.017446	-2.603333	2.585887	-0.018144 	0.001986
-78.050000	-0.017493	-2.601667	2.584174	-0.018111 	0.001987
-78.000000	-0.017541	-2.600000	2.582459	-0.018078 	0.001988
-77.950000	-0.017589	-2.598333	2.580744	-0.018045 	0.001988
-77.900000	-0.017636	-2.596667	2.579031	-0.018011 	0.001989
-77.850000	-0.017684	-2.595000	2.577316	-0.017977 	0.001990
-77.800000	-0.017731	-2.593333	2.575602	-0.017944 	0.001990
-77.750000	-0.017778	-2.591667	2.573889	-0.017909 	0.001991
-77.700000	-0.017825	-2.590000	2.572175	-0.017875 	0.001992
-77.650000	-0.017872	-2.588333	2.570461	-0.017841 	0.001992
-77.600000	-0.017919	-2.586667	2.568748	-0.017806 	0.001993
-77.550000	-0.017966	-2.585000	2.567034	-0.017772 	0.001994
-77.500000	-0.018012	-2.583333	2.565321	-0.017737 	0.001994
-77.450000	-0.018059	-2.581667	2.563608	-0.017702 	0.001995
-77.400000	-0.018105	-2.580000	2.561895	-0.017667 	0.001996
-77.350000	-0.018152	-2.578333	2.560181	-0.017631 	0.001996
-77.300000	-0.018198	-2.576667	2.558469	-0.017596 	0.001997
-77.250000	-0.018244	-2.575000	2.556756	-0.017560 	0.001998
-77.200000	-0.018290	-2.573333	2.555043	-0.017524 	0.001998
-77.150000	-0.018336	-2.571667	2.553331	-0.017488 	0.001999
-77.100000	-0.018382	-2.570000	2.551618	-0.017452 	0.002000
-77.050000	-0.018428	-2.568333	2.549905	-0.017416 	0.002000
-77.000000	-0.018474	-2.566667	2.548193	-0.017379 	0.002001
-76.950000	-0.018519	-2.565000	2.546481	-0.017342 	0.002002
-76.900000	-0.018565	-2.563333	2.544768	-0.017305 	0.002002
-76.850000	-0.018610	-2.561667	2.543057	-0.017268 	0.002003
-76.800000	-0.018655	-2.560000	2.541345	-0.017231 	0.002004
-76.750000	-0.018701	-2.558333	2.539632	-0.017194 	0.002004
-76.700000	-0.018746	-2.556667	2.537921	-0.017156 	0.002005
-76.650000	-0.018791	-2.555000	2.536209	-0.017119 	0.002006
-76.600000	-0.018835	-2.553333	2.534498	-0.017081 	0.002007
-76.550000	-0.018880	-2.551667	2.532787	-0.017043 	0.002007
-76.500000	-0.018925	-2.550000	2.531075	-0.017005 	0.002008
-76.450000	-0.018969	-2.548333	2.529364	-0.016966 	0.002009
-76.400000	-0.019014	-2.546667	2.527653	-0.016928 	0.002009
-76.350000	-0.019058	-2.545000	2.525942	-0.016889 	0.002010
-76.300000	-0.019102	-2.543333	2.524231	-0.016850 	0.002011
-76.250000	-0.019146	-2.541667	2.522521	-0.016811 	0.002011
-76.200000	-0.019190	-2.540000	2.520810	-0.016772 	0.002012
-76.150000	-0.019234	-2.538333	2.519099	-0.016733 	0.002013
-76.100000	-0.019278	-2.536667	2.517389	-0.016693 	0.002013
-76.050000	-0.019322	-2.535000	2.515678	-0.016653 	0.002014
-76.000000	-0.019365	-2.533333	2.513968	-0.016614 	0.002015
-75.950000	-0.019408	-2.531667	2.512259	-0.016574 	0.002015
-75.900000	-0.019452	-2.530000	2.510548	-0.016533 	0.002016
-75.850000	-0.019495	-2.528333	2.508838	-0.016493 	0.002017
-75.800000	-0.019538	-2.526667	2.507129	-0.016453 	0.002017
-75.750000	-0.019581	-2.525000	2.505419	-0.016412 	0.002018
-75.700000	-0.019624	-2.523333	2.503709	-0.016371 	0.002019
-75.650000	-0.019667	-2.521667	2.502000	-0.016330 	0.002019
-75.600000	-0.019709	-2.520000	2.500291	-0.016289 	0.002020
-75.550000	-0.019752	-2.518333	2.498581	-0.016247 	0.002021
-75.500000	-0.019794	-2.516667	2.496873	-0.016206 	0.002022
-75.450000	-0.019837	-2.515000	2.495163	-0.016164 	0.002022
-75.400000	-0.019879	-2.513333	2.493454	-0.016122 	0.002023
-75.350000	-0.019921	-2.511667	2.491746	-0.016080 	0.002024
-75.300000	-0.019963	-2.510000	2.490037	-0.016038 	0.002024
-75.250000	-0.020005	-2.508333	2.488328	-0.015996 	0.002025
-75.200000	-0.020046	-2.506667	2.486621	-0.015953 	0.002026
-75.150000	-0.020088	-2.505000	2.484912	-0.015911 	0.002026
-75.100000	-0.020129	-2.503333	2.483204	-0.015868 	0.002027
-75.050000	-0.020171	-2.501667	2.481496	-0.015825 	0.002028