VARIABLES = X,Ksi,B,H,U,tau 
ZONE T="Time 25.000000", I=2200, DATAPACKING=POINT
-100.000000	-0.005829	-3.333333	3.327504	-0.005725 	0.001751
-99.950000	-0.007226	-3.331667	3.324441	-0.003238 	0.001752
-99.900000	-0.006550	-3.330000	3.323450	-0.004310 	0.001752
-99.850000	-0.006762	-3.328333	3.321571	-0.003857 	0.001753
-99.800000	-0.006593	-3.326667	3.320074	-0.004058 	0.001753
-99.750000	-0.006588	-3.325000	3.318412	-0.003978 	0.001754
-99.700000	-0.006512	-3.323333	3.316821	-0.004019 	0.001754
-99.650000	-0.006466	-3.321667	3.315201	-0.004008 	0.001754
-99.600000	-0.006408	-3.320000	3.313592	-0.004019 	0.001755
-99.550000	-0.006355	-3.318333	3.311978	-0.004020 	0.001755
-99.500000	-0.006299	-3.316667	3.310368	-0.004026 	0.001756
-99.450000	-0.006244	-3.315000	3.308756	-0.004030 	0.001756
-99.400000	-0.006189	-3.313333	3.307144	-0.004034 	0.001757
-99.350000	-0.006134	-3.311667	3.305533	-0.004039 	0.001757
-99.300000	-0.006079	-3.310000	3.303921	-0.004043 	0.001757
-99.250000	-0.006024	-3.308333	3.302309	-0.004047 	0.001758
-99.200000	-0.005969	-3.306667	3.300698	-0.004052 	0.001758
-99.150000	-0.005914	-3.305000	3.299086	-0.004056 	0.001759
-99.100000	-0.005858	-3.303333	3.297475	-0.004060 	0.001759
-99.050000	-0.005803	-3.301667	3.295864	-0.004065 	0.001760
-99.000000	-0.005747	-3.300000	3.294253	-0.004069 	0.001760
-98.950000	-0.005692	-3.298333	3.292641	-0.004073 	0.001760
-98.900000	-0.005636	-3.296667	3.291031	-0.004077 	0.001761
-98.850000	-0.005581	-3.295000	3.289419	-0.004081 	0.001761
-98.800000	-0.005525	-3.293333	3.287808	-0.004085 	0.001762
-98.750000	-0.005469	-3.291667	3.286198	-0.004090 	0.001762
-98.700000	-0.005414	-3.290000	3.284586	-0.004094 	0.001763
-98.650000	-0.005358	-3.288333	3.282975	-0.004098 	0.001763
-98.600000	-0.005302	-3.286667	3.281365	-0.004102 	0.001763
-98.550000	-0.005246	-3.285000	3.279754	-0.004106 	0.001764
-98.500000	-0.005190	-3.283333	3.278143	-0.004110 	0.001764
-98.450000	-0.005134	-3.281667	3.276533	-0.004114 	0.001765
-98.400000	-0.005078	-3.280000	3.274922	-0.004118 	0.001765
-98.350000	-0.005022	-3.278333	3.273311	-0.004122 	0.001766
-98.300000	-0.004966	-3.276667	3.271701	-0.004126 	0.001766
-98.250000	-0.004909	-3.275000	3.270091	-0.004130 	0.001766
-98.200000	-0.004853	-3.273333	3.268480	-0.004134 	0.001767
-98.150000	-0.004797	-3.271667	3.266870	-0.004138 	0.001767
-98.100000	-0.004740	-3.270000	3.265260	-0.004142 	0.001768
-98.050000	-0.004684	-3.268333	3.263649	-0.004146 	0.001768
-98.000000	-0.004627	-3.266667	3.262040	-0.004149 	0.001769
-97.950000	-0.004571	-3.265000	3.260429	-0.004153 	0.001769
-97.900000	-0.004514	-3.263333	3.258819	-0.004157 	0.001770
-97.850000	-0.004457	-3.261667	3.257210	-0.004161 	0.001770
-97.800000	-0.004401	-3.260000	3.255599	-0.004164 	0.001770
-97.750000	-0.004344	-3.258333	3.253989	-0.004168 	0.001771
-97.700000	-0.004287	-3.256667	3.252380	-0.004172 	0.001771
-97.650000	-0.004230	-3.255000	3.250770	-0.004176 	0.001772
-97.600000	-0.004173	-3.253333	3.249160	-0.004179 	0.001772
-97.550000	-0.004116	-3.251667	3.247551	-0.004183 	0.001773
-97.500000	-0.004059	-3.250000	3.245941	-0.004187 	0.001773
-97.450000	-0.004002	-3.248333	3.244331	-0.004190 	0.001773
-97.400000	-0.003945	-3.246667	3.242722	-0.004194 	0.001774
-97.350000	-0.003888	-3.245000	3.241112	-0.004198 	0.001774
-97.300000	-0.003831	-3.243333	3.239502	-0.004201 	0.001775
-97.250000	-0.003774	-3.241667	3.237893	-0.004205 	0.001775
-97.200000	-0.003717	-3.240000	3.236283	-0.004209 	0.001776
-97.150000	-0.003659	-3.238333	3.234674	-0.004212 	0.001776
-97.100000	-0.003602	-3.236667	3.233065	-0.004216 	0.001777
-97.050000	-0.003544	-3.235000	3.231456	-0.004219 	0.001777
-97.000000	-0.003487	-3.233333	3.229846	-0.004223 	0.001777
-96.950000	-0.003429	-3.231667	3.228238	-0.004226 	0.001778
-96.900000	-0.003372	-3.230000	3.226628	-0.004230 	0.001778
-96.850000	-0.003314	-3.228333	3.225019	-0.004233 	0.001779
-96.800000	-0.003257	-3.226667	3.223410	-0.004236 	0.001779
-96.750000	-0.003199	-3.225000	3.221801	-0.004240 	0.001780
-96.700000	-0.003141	-3.223333	3.220192	-0.004243 	0.001780
-96.650000	-0.003083	-3.221667	3.218584	-0.004246 	0.001781
-96.600000	-0.003025	-3.220000	3.216975	-0.004250 	0.001781
-96.550000	-0.002968	-3.218333	3.215365	-0.004253 	0.001781
-96.500000	-0.002910	-3.216667	3.213757	-0.004256 	0.001782
-96.450000	-0.002852	-3.215000	3.212148	-0.004260 	0.001782
-96.400000	-0.002794	-3.213333	3.210539	-0.004263 	0.001783
-96.350000	-0.002736	-3.211667	3.208931	-0.004266 	0.001783
-96.300000	-0.002678	-3.210000	3.207322	-0.004269 	0.001784
-96.250000	-0.002619	-3.208333	3.205714	-0.004272 	0.001784
-96.200000	-0.002561	-3.206667	3.204106	-0.004276 	0.001785
-96.150000	-0.002503	-3.205000	3.202497	-0.004279 	0.001785
-96.100000	-0.002445	-3.203333	3.200888	-0.004282 	0.001785
-96.050000	-0.002386	-3.201667	3.199281	-0.004285 	0.001786
-96.000000	-0.002328	-3.200000	3.197672	-0.004288 	0.001786
-95.950000	-0.002270	-3.198333	3.196063	-0.004291 	0.001787
-95.900000	-0.002211	-3.196667	3.194456	-0.004294 	0.001787
-95.850000	-0.002153	-3.195000	3.192847	-0.004297 	0.001788
-95.800000	-0.002094	-3.193333	3.191239	-0.004300 	0.001788
-95.750000	-0.002035	-3.191667	3.189632	-0.004303 	0.001789
-95.700000	-0.001977	-3.190000	3.188023	-0.004306 	0.001789
-95.650000	-0.001918	-3.188333	3.186415	-0.004309 	0.001790
-95.600000	-0.001860	-3.186667	3.184807	-0.004312 	0.001790
-95.550000	-0.001801	-3.185000	3.183199	-0.004315 	0.001790
-95.500000	-0.001742	-3.183333	3.181591	-0.004318 	0.001791
-95.450000	-0.001683	-3.181667	3.179984	-0.004320 	0.001791
-95.400000	-0.001624	-3.180000	3.178376	-0.004323 	0.001792
-95.350000	-0.001565	-3.178333	3.176768	-0.004326 	0.001792
-95.300000	-0.001507	-3.176667	3.175160	-0.004329 	0.001793
-95.250000	-0.001448	-3.175000	3.173552	-0.004332 	0.001793
-95.200000	-0.001389	-3.173333	3.171944	-0.004334 	0.001794
-95.150000	-0.001329	-3.171667	3.170338	-0.004337 	0.001794
-95.100000	-0.001270	-3.170000	3.168730	-0.004340 	0.001795
-95.050000	-0.001211	-3.168333	3.167122	-0.004342 	0.001795
-95.000000	-0.001152	-3.166667	3.165515	-0.004345 	0.001795
-94.950000	-0.001093	-3.165000	3.163907	-0.004348 	0.001796
-94.900000	-0.001034	-3.163333	3.162299	-0.004350 	0.001796
-94.850000	-0.000974	-3.161667	3.160693	-0.004353 	0.001797
-94.800000	-0.000915	-3.160000	3.159085	-0.004356 	0.001797
-94.750000	-0.000856	-3.158333	3.157477	-0.004358 	0.001798
-94.700000	-0.000796	-3.156667	3.155871	-0.004361 	0.001798
-94.650000	-0.000737	-3.155000	3.154263	-0.004363 	0.001799
-94.600000	-0.000678	-3.153333	3.152655	-0.004366 	0.001799
-94.550000	-0.000618	-3.151667	3.151049	-0.004368 	0.001800
-94.500000	-0.000559	-3.150000	3.149441	-0.004370 	0.001800
-94.450000	-0.000499	-3.148333	3.147834	-0.004373 	0.001800
-94.400000	-0.000439	-3.146667	3.146228	-0.004375 	0.001801
-94.350000	-0.000380	-3.145000	3.144620	-0.004378 	0.001801
-94.300000	-0.000320	-3.143333	3.143013	-0.004380 	0.001802
-94.250000	-0.000260	-3.141667	3.141407	-0.004382 	0.001802
-94.200000	-0.000201	-3.140000	3.139799	-0.004385 	0.001803
-94.150000	-0.000141	-3.138333	3.138192	-0.004387 	0.001803
-94.100000	-0.000081	-3.136667	3.136586	-0.004389 	0.001804
-94.050000	-0.000021	-3.135000	3.134979	-0.004391 	0.001804
-94.000000	0.000039	-3.133333	3.133372	-0.004394 	0.001805
-93.950000	0.000098	-3.131667	3.131765	-0.004396 	0.001805
-93.900000	0.000158	-3.130000	3.130158	-0.004398 	0.001806
-93.850000	0.000218	-3.128333	3.128551	-0.004400 	0.001806
-93.800000	0.000278	-3.126667	3.126945	-0.004402 	0.001806
-93.750000	0.000338	-3.125000	3.125338	-0.004404 	0.001807
-93.700000	0.000398	-3.123333	3.123731	-0.004406 	0.001807
-93.650000	0.000458	-3.121667	3.122125	-0.004409 	0.001808
-93.600000	0.000518	-3.120000	3.120518	-0.004411 	0.001808
-93.550000	0.000578	-3.118333	3.118911	-0.004413 	0.001809
-93.500000	0.000639	-3.116667	3.117306	-0.004415 	0.001809
-93.450000	0.000699	-3.115000	3.115699	-0.004417 	0.001810
-93.400000	0.000759	-3.113333	3.114092	-0.004419 	0.001810
-93.350000	0.000819	-3.111667	3.112486	-0.004421 	0.001811
-93.300000	0.000879	-3.110000	3.110879	-0.004423 	0.001811
-93.250000	0.000940	-3.108333	3.109273	-0.004425 	0.001812
-93.200000	0.001000	-3.106667	3.107667	-0.004427 	0.001812
-93.150000	0.001060	-3.105000	3.106060	-0.004429 	0.001813
-93.100000	0.001120	-3.103333	3.104453	-0.004431 	0.001813
-93.050000	0.001181	-3.101667	3.102848	-0.004433 	0.001813
-93.000000	0.001241	-3.100000	3.101241	-0.004435 	0.001814
-92.950000	0.001302	-3.098333	3.099635	-0.004436 	0.001814
-92.900000	0.001362	-3.096667	3.098029	-0.004438 	0.001815
-92.850000	0.001423	-3.095000	3.096423	-0.004440 	0.001815
-92.800000	0.001483	-3.093333	3.094816	-0.004442 	0.001816
-92.750000	0.001544	-3.091667	3.093211	-0.004443 	0.001816
-92.700000	0.001604	-3.090000	3.091604	-0.004445 	0.001817
-92.650000	0.001665	-3.088333	3.089998	-0.004447 	0.001817
-92.600000	0.001726	-3.086667	3.088393	-0.004448 	0.001818
-92.550000	0.001786	-3.085000	3.086786	-0.004450 	0.001818
-92.500000	0.001847	-3.083333	3.085180	-0.004451 	0.001819
-92.450000	0.001908	-3.081667	3.083575	-0.004453 	0.001819
-92.400000	0.001968	-3.080000	3.081968	-0.004454 	0.001820
-92.350000	0.002029	-3.078333	3.080362	-0.004456 	0.001820
-92.300000	0.002090	-3.076667	3.078757	-0.004457 	0.001821
-92.250000	0.002151	-3.075000	3.077151	-0.004459 	0.001821
-92.200000	0.002211	-3.073333	3.075544	-0.004460 	0.001821
-92.150000	0.002272	-3.071667	3.073939	-0.004462 	0.001822
-92.100000	0.002333	-3.070000	3.072333	-0.004463 	0.001822
-92.050000	0.002394	-3.068333	3.070727	-0.004464 	0.001823
-92.000000	0.002455	-3.066667	3.069122	-0.004466 	0.001823
-91.950000	0.002516	-3.065000	3.067516	-0.004467 	0.001824
-91.900000	0.002577	-3.063333	3.065910	-0.004468 	0.001824
-91.850000	0.002638	-3.061667	3.064305	-0.004470 	0.001825
-91.800000	0.002699	-3.060000	3.062699	-0.004471 	0.001825
-91.750000	0.002760	-3.058333	3.061093	-0.004472 	0.001826
-91.700000	0.002821	-3.056667	3.059488	-0.004473 	0.001826
-91.650000	0.002882	-3.055000	3.057882	-0.004474 	0.001827
-91.600000	0.002943	-3.053333	3.056276	-0.004476 	0.001827
-91.550000	0.003004	-3.051667	3.054671	-0.004477 	0.001828
-91.500000	0.003065	-3.050000	3.053065	-0.004478 	0.001828
-91.450000	0.003126	-3.048333	3.051459	-0.004479 	0.001829
-91.400000	0.003188	-3.046667	3.049855	-0.004480 	0.001829
-91.350000	0.003249	-3.045000	3.048249	-0.004481 	0.001830
-91.300000	0.003310	-3.043333	3.046643	-0.004482 	0.001830
-91.250000	0.003371	-3.041667	3.045038	-0.004483 	0.001831
-91.200000	0.003432	-3.040000	3.043432	-0.004484 	0.001831
-91.150000	0.003494	-3.038333	3.041827	-0.004485 	0.001832
-91.100000	0.003555	-3.036667	3.040222	-0.004486 	0.001832
-91.050000	0.003616	-3.035000	3.038616	-0.004487 	0.001833
-91.000000	0.003677	-3.033333	3.037010	-0.004487 	0.001833
-90.950000	0.003739	-3.031667	3.035406	-0.004488 	0.001833
-90.900000	0.003800	-3.030000	3.033800	-0.004489 	0.001834
-90.850000	0.003861	-3.028333	3.032194	-0.004490 	0.001834
-90.800000	0.003923	-3.026667	3.030590	-0.004491 	0.001835
-90.750000	0.003984	-3.025000	3.028984	-0.004491 	0.001835
-90.700000	0.004045	-3.023333	3.027378	-0.004492 	0.001836
-90.650000	0.004107	-3.021667	3.025774	-0.004493 	0.001836
-90.600000	0.004168	-3.020000	3.024168	-0.004493 	0.001837
-90.550000	0.004230	-3.018333	3.022563	-0.004494 	0.001837
-90.500000	0.004291	-3.016667	3.020958	-0.004494 	0.001838
-90.450000	0.004352	-3.015000	3.019352	-0.004495 	0.001838
-90.400000	0.004414	-3.013333	3.017747	-0.004496 	0.001839
-90.350000	0.004475	-3.011667	3.016142	-0.004496 	0.001839
-90.300000	0.004537	-3.010000	3.014537	-0.004497 	0.001840
-90.250000	0.004598	-3.008333	3.012931	-0.004497 	0.001840
-90.200000	0.004660	-3.006667	3.011327	-0.004498 	0.001841
-90.150000	0.004721	-3.005000	3.009721	-0.004498 	0.001841
-90.100000	0.004783	-3.003333	3.008116	-0.004498 	0.001842
-90.050000	0.004845	-3.001667	3.006512	-0.004499 	0.001842
-90.000000	0.004906	-3.000000	3.004906	-0.004499 	0.001843
-89.950000	0.004968	-2.998333	3.003301	-0.004499 	0.001843
-89.900000	0.005029	-2.996667	3.001696	-0.004500 	0.001844
-89.850000	0.005091	-2.995000	3.000091	-0.004500 	0.001844
-89.800000	0.005152	-2.993333	2.998485	-0.004500 	0.001845
-89.750000	0.005214	-2.991667	2.996881	-0.004500 	0.001845
-89.700000	0.005276	-2.990000	2.995276	-0.004501 	0.001846
-89.650000	0.005337	-2.988333	2.993670	-0.004501 	0.001846
-89.600000	0.005399	-2.986667	2.992066	-0.004501 	0.001847
-89.550000	0.005460	-2.985000	2.990460	-0.004501 	0.001847
-89.500000	0.005522	-2.983333	2.988855	-0.004501 	0.001848
-89.450000	0.005584	-2.981667	2.987251	-0.004501 	0.001848
-89.400000	0.005645	-2.980000	2.985645	-0.004501 	0.001849
-89.350000	0.005707	-2.978333	2.984040	-0.004501 	0.001849
-89.300000	0.005769	-2.976667	2.982436	-0.004501 	0.001850
-89.250000	0.005830	-2.975000	2.980830	-0.004501 	0.001850
-89.200000	0.005892	-2.973333	2.979225	-0.004501 	0.001851
-89.150000	0.005954	-2.971667	2.977621	-0.004501 	0.001851
-89.100000	0.006015	-2.970000	2.976015	-0.004501 	0.001852
-89.050000	0.006077	-2.968333	2.974410	-0.004501 	0.001852
-89.000000	0.006139	-2.966667	2.972806	-0.004501 	0.001853
-88.950000	0.006200	-2.965000	2.971200	-0.004501 	0.001853
-88.900000	0.006262	-2.963333	2.969595	-0.004500 	0.001854
-88.850000	0.006324	-2.961667	2.967991	-0.004500 	0.001854
-88.800000	0.006385	-2.960000	2.966385	-0.004500 	0.001855
-88.750000	0.006447	-2.958333	2.964780	-0.004500 	0.001855
-88.700000	0.006509	-2.956667	2.963176	-0.004499 	0.001856
-88.650000	0.006571	-2.955000	2.961571	-0.004499 	0.001856
-88.600000	0.006632	-2.953333	2.959965	-0.004498 	0.001857
-88.550000	0.006694	-2.951667	2.958361	-0.004498 	0.001857
-88.500000	0.006756	-2.950000	2.956756	-0.004498 	0.001858
-88.450000	0.006817	-2.948333	2.955150	-0.004497 	0.001858
-88.400000	0.006879	-2.946667	2.953546	-0.004497 	0.001859
-88.350000	0.006941	-2.945000	2.951941	-0.004496 	0.001859
-88.300000	0.007003	-2.943333	2.950336	-0.004496 	0.001860
-88.250000	0.007064	-2.941667	2.948731	-0.004495 	0.001860
-88.200000	0.007126	-2.940000	2.947126	-0.004494 	0.001861
-88.150000	0.007188	-2.938333	2.945521	-0.004494 	0.001861
-88.100000	0.007249	-2.936667	2.943916	-0.004493 	0.001862
-88.050000	0.007311	-2.935000	2.942311	-0.004492 	0.001862
-88.000000	0.007373	-2.933333	2.940706	-0.004492 	0.001863
-87.950000	0.007435	-2.931667	2.939102	-0.004491 	0.001863
-87.900000	0.007496	-2.930000	2.937496	-0.004490 	0.001864
-87.850000	0.007558	-2.928333	2.935891	-0.004489 	0.001864
-87.800000	0.007620	-2.926667	2.934287	-0.004489 	0.001865
-87.750000	0.007681	-2.925000	2.932681	-0.004488 	0.001865
-87.700000	0.007743	-2.923333	2.931076	-0.004487 	0.001866
-87.650000	0.007805	-2.921667	2.929472	-0.004486 	0.001866
-87.600000	0.007866	-2.920000	2.927866	-0.004485 	0.001867
-87.550000	0.007928	-2.918333	2.926261	-0.004484 	0.001867
-87.500000	0.007990	-2.916667	2.924657	-0.004483 	0.001868
-87.450000	0.008051	-2.915000	2.923051	-0.004482 	0.001868
-87.400000	0.008113	-2.913333	2.921446	-0.004481 	0.001869
-87.350000	0.008175	-2.911667	2.919842	-0.004480 	0.001869
-87.300000	0.008236	-2.910000	2.918236	-0.004479 	0.001870
-87.250000	0.008298	-2.908333	2.916631	-0.004478 	0.001870
-87.200000	0.008360	-2.906667	2.915027	-0.004477 	0.001871
-87.150000	0.008421	-2.905000	2.913421	-0.004476 	0.001871
-87.100000	0.008483	-2.903333	2.911816	-0.004474 	0.001872
-87.050000	0.008545	-2.901667	2.910212	-0.004473 	0.001873
-87.000000	0.008606	-2.900000	2.908606	-0.004472 	0.001873
-86.950000	0.008668	-2.898333	2.907001	-0.004471 	0.001874
-86.900000	0.008729	-2.896667	2.905396	-0.004469 	0.001874
-86.850000	0.008791	-2.895000	2.903791	-0.004468 	0.001875
-86.800000	0.008852	-2.893333	2.902185	-0.004467 	0.001875
-86.750000	0.008914	-2.891667	2.900581	-0.004465 	0.001876
-86.700000	0.008976	-2.890000	2.898976	-0.004464 	0.001876
-86.650000	0.009037	-2.888333	2.897370	-0.004462 	0.001877
-86.600000	0.009099	-2.886667	2.895766	-0.004461 	0.001877
-86.550000	0.009160	-2.885000	2.894160	-0.004459 	0.001878
-86.500000	0.009222	-2.883333	2.892555	-0.004458 	0.001878
-86.450000	0.009283	-2.881667	2.890950	-0.004456 	0.001879
-86.400000	0.009345	-2.880000	2.889345	-0.004455 	0.001879
-86.350000	0.009406	-2.878333	2.887739	-0.004453 	0.001880
-86.300000	0.009468	-2.876667	2.886135	-0.004451 	0.001880
-86.250000	0.009529	-2.875000	2.884529	-0.004450 	0.001881
-86.200000	0.009590	-2.873333	2.882923	-0.004448 	0.001881
-86.150000	0.009652	-2.871667	2.881319	-0.004446 	0.001882
-86.100000	0.009713	-2.870000	2.879713	-0.004444 	0.001882
-86.050000	0.009775	-2.868333	2.878108	-0.004443 	0.001883
-86.000000	0.009836	-2.866667	2.876503	-0.004441 	0.001883
-85.950000	0.009897	-2.865000	2.874897	-0.004439 	0.001884
-85.900000	0.009959	-2.863333	2.873292	-0.004437 	0.001885
-85.850000	0.010020	-2.861667	2.871687	-0.004435 	0.001885
-85.800000	0.010081	-2.860000	2.870081	-0.004433 	0.001886
-85.750000	0.010143	-2.858333	2.868476	-0.004431 	0.001886
-85.700000	0.010204	-2.856667	2.866871	-0.004429 	0.001887
-85.650000	0.010265	-2.855000	2.865265	-0.004427 	0.001887
-85.600000	0.010326	-2.853333	2.863659	-0.004425 	0.001888
-85.550000	0.010388	-2.851667	2.862055	-0.004423 	0.001888
-85.500000	0.010449	-2.850000	2.860449	-0.004421 	0.001889
-85.450000	0.010510	-2.848333	2.858843	-0.004419 	0.001889
-85.400000	0.010571	-2.846667	2.857238	-0.004417 	0.001890
-85.350000	0.010632	-2.845000	2.855632	-0.004414 	0.001890
-85.300000	0.010693	-2.843333	2.854026	-0.004412 	0.001891
-85.250000	0.010754	-2.841667	2.852421	-0.004410 	0.001891
-85.200000	0.010815	-2.840000	2.850815	-0.004408 	0.001892
-85.150000	0.010877	-2.838333	2.849210	-0.004405 	0.001892
-85.100000	0.010938	-2.836667	2.847605	-0.004403 	0.001893
-85.050000	0.010999	-2.835000	2.845999	-0.004401 	0.001894
-85.000000	0.011060	-2.833333	2.844393	-0.004398 	0.001894
-84.950000	0.011121	-2.831667	2.842788	-0.004396 	0.001895
-84.900000	0.011181	-2.830000	2.841181	-0.004393 	0.001895
-84.850000	0.011242	-2.828333	2.839575	-0.004391 	0.001896
-84.800000	0.011303	-2.826667	2.837970	-0.004388 	0.001896
-84.750000	0.011364	-2.825000	2.836364	-0.004386 	0.001897
-84.700000	0.011425	-2.823333	2.834758	-0.004383 	0.001897
-84.650000	0.011486	-2.821667	2.833153	-0.004380 	0.001898
-84.600000	0.011547	-2.820000	2.831547	-0.004378 	0.001898
-84.550000	0.011607	-2.818333	2.829940	-0.004375 	0.001899
-84.500000	0.011668	-2.816667	2.828335	-0.004372 	0.001899
-84.450000	0.011729	-2.815000	2.826729	-0.004370 	0.001900
-84.400000	0.011790	-2.813333	2.825123	-0.004367 	0.001901
-84.350000	0.011850	-2.811667	2.823517	-0.004364 	0.001901
-84.300000	0.011911	-2.810000	2.821911	-0.004361 	0.001902
-84.250000	0.011972	-2.808333	2.820305	-0.004358 	0.001902
-84.200000	0.012032	-2.806667	2.818699	-0.004355 	0.001903
-84.150000	0.012093	-2.805000	2.817093	-0.004353 	0.001903
-84.100000	0.012153	-2.803333	2.815486	-0.004350 	0.001904
-84.050000	0.012214	-2.801667	2.813881	-0.004347 	0.001904
-84.000000	0.012274	-2.800000	2.812274	-0.004344 	0.001905
-83.950000	0.012335	-2.798333	2.810668	-0.004341 	0.001905
-83.900000	0.012395	-2.796667	2.809062	-0.004337 	0.001906
-83.850000	0.012456	-2.795000	2.807456	-0.004334 	0.001906
-83.800000	0.012516	-2.793333	2.805849	-0.004331 	0.001907
-83.750000	0.012576	-2.791667	2.804243	-0.004328 	0.001908
-83.700000	0.012636	-2.790000	2.802636	-0.004325 	0.001908
-83.650000	0.012697	-2.788333	2.801030	-0.004322 	0.001909
-83.600000	0.012757	-2.786667	2.799424	-0.004318 	0.001909
-83.550000	0.012817	-2.785000	2.797817	-0.004315 	0.001910
-83.500000	0.012877	-2.783333	2.796210	-0.004312 	0.001910
-83.450000	0.012938	-2.781667	2.794605	-0.004308 	0.001911
-83.400000	0.012998	-2.780000	2.792998	-0.004305 	0.001911
-83.350000	0.013058	-2.778333	2.791391	-0.004302 	0.001912
-83.300000	0.013118	-2.776667	2.789785	-0.004298 	0.001913
-83.250000	0.013178	-2.775000	2.788178	-0.004295 	0.001913
-83.200000	0.013238	-2.773333	2.786571	-0.004291 	0.001914
-83.150000	0.013298	-2.771667	2.784965	-0.004288 	0.001914
-83.100000	0.013358	-2.770000	2.783358	-0.004284 	0.001915
-83.050000	0.013417	-2.768333	2.781750	-0.004280 	0.001915
-83.000000	0.013477	-2.766667	2.780144	-0.004277 	0.001916
-82.950000	0.013537	-2.765000	2.778537	-0.004273 	0.001916
-82.900000	0.013597	-2.763333	2.776930	-0.004269 	0.001917
-82.850000	0.013656	-2.761667	2.775323	-0.004266 	0.001917
-82.800000	0.013716	-2.760000	2.773716	-0.004262 	0.001918
-82.750000	0.013776	-2.758333	2.772109	-0.004258 	0.001919
-82.700000	0.013835	-2.756667	2.770502	-0.004254 	0.001919
-82.650000	0.013895	-2.755000	2.768895	-0.004250 	0.001920
-82.600000	0.013954	-2.753333	2.767287	-0.004247 	0.001920
-82.550000	0.014014	-2.751667	2.765681	-0.004243 	0.001921
-82.500000	0.014073	-2.750000	2.764073	-0.004239 	0.001921
-82.450000	0.014133	-2.748333	2.762466	-0.004235 	0.001922
-82.400000	0.014192	-2.746667	2.760859	-0.004231 	0.001922
-82.350000	0.014251	-2.745000	2.759251	-0.004227 	0.001923
-82.300000	0.014311	-2.743333	2.757644	-0.004223 	0.001924
-82.250000	0.014370	-2.741667	2.756037	-0.004218 	0.001924
-82.200000	0.014429	-2.740000	2.754429	-0.004214 	0.001925
-82.150000	0.014488	-2.738333	2.752821	-0.004210 	0.001925
-82.100000	0.014547	-2.736667	2.751214	-0.004206 	0.001926
-82.050000	0.014607	-2.735000	2.749607	-0.004202 	0.001926
-82.000000	0.014666	-2.733333	2.747999	-0.004197 	0.001927
-81.950000	0.014725	-2.731667	2.746392	-0.004193 	0.001928
-81.900000	0.014783	-2.730000	2.744783	-0.004189 	0.001928
-81.850000	0.014842	-2.728333	2.743175	-0.004184 	0.001929
-81.800000	0.014901	-2.726667	2.741568	-0.004180 	0.001929
-81.750000	0.014960	-2.725000	2.739960	-0.004175 	0.001930
-81.700000	0.015019	-2.723333	2.738352	-0.004171 	0.001930
-81.650000	0.015078	-2.721667	2.736745	-0.004166 	0.001931
-81.600000	0.015136	-2.720000	2.735136	-0.004162 	0.001932
-81.550000	0.015195	-2.718333	2.733528	-0.004157 	0.001932
-81.500000	0.015253	-2.716667	2.731920	-0.004153 	0.001933
-81.450000	0.015312	-2.715000	2.730312	-0.004148 	0.001933
-81.400000	0.015370	-2.713333	2.728703	-0.004143 	0.001934
-81.350000	0.015429	-2.711667	2.727096	-0.004139 	0.001934
-81.300000	0.015487	-2.710000	2.725487	-0.004134 	0.001935
-81.250000	0.015545	-2.708333	2.723878	-0.004129 	0.001935
-81.200000	0.015604	-2.706667	2.722271	-0.004124 	0.001936
-81.150000	0.015662	-2.705000	2.720662	-0.004120 	0.001937
-81.100000	0.015720	-2.703333	2.719053	-0.004115 	0.001937
-81.050000	0.015778	-2.701667	2.717445	-0.004110 	0.001938
-81.000000	0.015836	-2.700000	2.715836	-0.004105 	0.001938
-80.950000	0.015894	-2.698333	2.714227	-0.004100 	0.001939
-80.900000	0.015952	-2.696667	2.712619	-0.004095 	0.001940
-80.850000	0.016010	-2.695000	2.711010	-0.004090 	0.001940
-80.800000	0.016068	-2.693333	2.709401	-0.004085 	0.001941
-80.750000	0.016126	-2.691667	2.707793	-0.004080 	0.001941
-80.700000	0.016184	-2.690000	2.706184	-0.004075 	0.001942
-80.650000	0.016241	-2.688333	2.704574	-0.004069 	0.001942
-80.600000	0.016299	-2.686667	2.702966	-0.004064 	0.001943
-80.550000	0.016357	-2.685000	2.701357	-0.004059 	0.001944
-80.500000	0.016414	-2.683333	2.699747	-0.004054 	0.001944
-80.450000	0.016472	-2.681667	2.698139	-0.004048 	0.001945
-80.400000	0.016529	-2.680000	2.696529	-0.004043 	0.001945
-80.350000	0.016586	-2.678333	2.694919	-0.004038 	0.001946
-80.300000	0.016644	-2.676667	2.693311	-0.004032 	0.001946
-80.250000	0.016701	-2.675000	2.691701	-0.004027 	0.001947
-80.200000	0.016758	-2.673333	2.690091	-0.004021 	0.001948
-80.150000	0.016815	-2.671667	2.688482	-0.004016 	0.001948
-80.100000	0.016872	-2.670000	2.686872	-0.004010 	0.001949
-80.050000	0.016929	-2.668333	2.685262	-0.004005 	0.001949
-80.000000	0.016986	-2.666667	2.683653	-0.003999 	0.001950
-79.950000	0.017043	-2.665000	2.682043	-0.003994 	0.001951
-79.900000	0.017100	-2.663333	2.680433	-0.003988 	0.001951
-79.850000	0.017157	-2.661667	2.678824	-0.003982 	0.001952
-79.800000	0.017214	-2.660000	2.677214	-0.003976 	0.001952
-79.750000	0.017270	-2.658333	2.675603	-0.003971 	0.001953
-79.700000	0.017327	-2.656667	2.673994	-0.003965 	0.001953
-79.650000	0.017383	-2.655000	2.672383	-0.003959 	0.001954
-79.600000	0.017440	-2.653333	2.670773	-0.003953 	0.001955
-79.550000	0.017496	-2.651667	2.669163	-0.003947 	0.001955
-79.500000	0.017553	-2.650000	2.667553	-0.003941 	0.001956
-79.450000	0.017609	-2.648333	2.665942	-0.003935 	0.001956
-79.400000	0.017665	-2.646667	2.664332	-0.003929 	0.001957
-79.350000	0.017721	-2.645000	2.662721	-0.003923 	0.001958
-79.300000	0.017777	-2.643333	2.661110	-0.003917 	0.001958
-79.250000	0.017833	-2.641667	2.659500	-0.003911 	0.001959
-79.200000	0.017889	-2.640000	2.657889	-0.003905 	0.001959
-79.150000	0.017945	-2.638333	2.656278	-0.003899 	0.001960
-79.100000	0.018001	-2.636667	2.654668	-0.003892 	0.001961
-79.050000	0.018057	-2.635000	2.653057	-0.003886 	0.001961
-79.000000	0.018113	-2.633333	2.651446	-0.003880 	0.001962
-78.950000	0.018168	-2.631667	2.649835	-0.003873 	0.001962
-78.900000	0.018224	-2.630000	2.648224	-0.003867 	0.001963
-78.850000	0.018279	-2.628333	2.646612	-0.003861 	0.001964
-78.800000	0.018335	-2.626667	2.645002	-0.003854 	0.001964
-78.750000	0.018390	-2.625000	2.643390	-0.003848 	0.001965
-78.700000	0.018445	-2.623333	2.641778	-0.003841 	0.001965
-78.650000	0.018501	-2.621667	2.640168	-0.003835 	0.001966
-78.600000	0.018556	-2.620000	2.638556	-0.003828 	0.001967
-78.550000	0.018611	-2.618333	2.636944	-0.003821 	0.001967
-78.500000	0.018666	-2.616667	2.635333	-0.003815 	0.001968
-78.450000	0.018721	-2.615000	2.633721	-0.003808 	0.001968
-78.400000	0.018776	-2.613333	2.632109	-0.003801 	0.001969
-78.350000	0.018830	-2.611667	2.630497	-0.003795 	0.001970
-78.300000	0.018885	-2.610000	2.628885	-0.003788 	0.001970
-78.250000	0.018940	-2.608333	2.627273	-0.003781 	0.001971
-78.200000	0.018994	-2.606667	2.625661	-0.003774 	0.001971
-78.150000	0.019049	-2.605000	2.624049	-0.003767 	0.001972
-78.100000	0.019103	-2.603333	2.622436	-0.003760 	0.001973
-78.050000	0.019157	-2.601667	2.620824	-0.003753 	0.001973
-78.000000	0.019212	-2.600000	2.619212	-0.003746 	0.001974
-77.950000	0.019266	-2.598333	2.617599	-0.003739 	0.001974
-77.900000	0.019320	-2.596667	2.615987	-0.003732 	0.001975
-77.850000	0.019374	-2.595000	2.614374	-0.003725 	0.001976
-77.800000	0.019428	-2.593333	2.612761	-0.003718 	0.001976
-77.750000	0.019482	-2.591667	2.611149	-0.003711 	0.001977
-77.700000	0.019536	-2.590000	2.609536	-0.003703 	0.001977
-77.650000	0.019589	-2.588333	2.607922	-0.003696 	0.001978
-77.600000	0.019643	-2.586667	2.606310	-0.003689 	0.001979
-77.550000	0.019697	-2.585000	2.604697	-0.003682 	0.001979
-77.500000	0.019750	-2.583333	2.603083	-0.003674 	0.001980
-77.450000	0.019803	-2.581667	2.601470	-0.003667 	0.001981
-77.400000	0.019857	-2.580000	2.599857	-0.003659 	0.001981
-77.350000	0.019910	-2.578333	2.598243	-0.003652 	0.001982
-77.300000	0.019963	-2.576667	2.596630	-0.003644 	0.001982
-77.250000	0.020016	-2.575000	2.595016	-0.003637 	0.001983
-77.200000	0.020069	-2.573333	2.593402	-0.003629 	0.001984
-77.150000	0.020122	-2.571667	2.591789	-0.003622 	0.001984
-77.100000	0.020175	-2.570000	2.590175	-0.003614 	0.001985
-77.050000	0.020228	-2.568333	2.588561	-0.003606 	0.001985
-77.000000	0.020280	-2.566667	2.586947	-0.003598 	0.001986
-76.950000	0.020333	-2.565000	2.585333	-0.003591 	0.001987
-76.900000	0.020385	-2.563333	2.583718	-0.003583 	0.001987
-76.850000	0.020438	-2.561667	2.582105	-0.003575 	0.001988
-76.800000	0.020490	-2.560000	2.580490	-0.003567 	0.001989
-76.750000	0.020542	-2.558333	2.578875	-0.003559 	0.001989
-76.700000	0.020595	-2.556667	2.577262	-0.003551 	0.001990
-76.650000	0.020647	-2.555000	2.575647	-0.003543 	0.001990
-76.600000	0.020699	-2.553333	2.574032	-0.003535 	0.001991
-76.550000	0.020750	-2.551667	2.572417	-0.003527 	0.001992
-76.500000	0.020802	-2.550000	2.570802	-0.003519 	0.001992
-76.450000	0.020854	-2.548333	2.569187	-0.003511 	0.001993
-76.400000	0.020906	-2.546667	2.567573	-0.003503 	0.001994
-76.350000	0.020957	-2.545000	2.565957	-0.003494 	0.001994
-76.300000	0.021009	-2.543333	2.564342	-0.003486 	0.001995
-76.250000	0.021060	-2.541667	2.562727	-0.003478 	0.001995
-76.200000	0.021111	-2.540000	2.561111	-0.003470 	0.001996
-76.150000	0.021162	-2.538333	2.559495	-0.003461 	0.001997
-76.100000	0.021213	-2.536667	2.557880	-0.003453 	0.001997
-76.050000	0.021264	-2.535000	2.556264	-0.003444 	0.001998
-76.000000	0.021315	-2.533333	2.554648	-0.003436 	0.001999
-75.950000	0.021366	-2.531667	2.553033	-0.003427 	0.001999
-75.900000	0.021417	-2.530000	2.551417	-0.003419 	0.002000
-75.850000	0.021467	-2.528333	2.549800	-0.003410 	0.002000
-75.800000	0.021518	-2.526667	2.548185	-0.003401 	0.002001
-75.750000	0.021568	-2.525000	2.546568	-0.003393 	0.002002
-75.700000	0.021619	-2.523333	2.544952	-0.003384 	0.002002
-75.650000	0.021669	-2.521667	2.543336	-0.003375 	0.002003
-75.600000	0.021719	-2.520000	2.541719	-0.003367 	0.002004
-75.550000	0.021769	-2.518333	2.540102	-0.003358 	0.002004
-75.500000	0.021819	-2.516667	2.538486	-0.003349 	0.002005
-75.450000	0.021869	-2.515000	2.536869	-0.003340 	0.002006
-75.400000	0.021919	-2.513333	2.535252	-0.003331 	0.002006
-75.350000	0.021968	-2.511667	2.533635	-0.003322 	0.002007
-75.300000	0.022018	-2.510000	2.532018	-0.003313 	0.002007
-75.250000	0.022067	-2.508333	2.530400	-0.003304 	0.002008
-75.200000	0.022117	-2.506667	2.528784	-0.003295 	0.002009
-75.150000	0.022166	-2.505000	2.527166	-0.003286 	0.002009
-75.100000	0.022215	-2.503333	2.525548	-0.003277 	0.002010
-75.050000	0.022264	-2.501667	2.523931	-0.003267 	0.002011
-75.000000	0.022313	-2.500000	2.522313	-0.003258 	0.002011
-74.950000	0.022362	-2.498333	2.520695	-0.003249 	0.002012
-74.900000	0.022410	-2.496667	2.519077	-0.003239 	0.002013
-74.850000	0.022459	-2.495000	2.517459	-0.003230 	0.002013
-74.800000	0.022508	-2.493333	2.515841	-0.003221 	0.002014