VARIABLES = X,Ksi,B,H,U,tau 
ZONE T="Time 30.000000", I=2200, DATAPACKING=POINT
-100.000000	0.000046	-3.333333	3.333379	-0.043686 	0.001750
-99.950000	-0.001766	-3.331667	3.329901	-0.040607 	0.001751
-99.900000	-0.000979	-3.330000	3.329021	-0.041985 	0.001751
-99.850000	-0.001297	-3.328333	3.327036	-0.041467 	0.001751
-99.800000	-0.001145	-3.326667	3.325522	-0.041756 	0.001752
-99.750000	-0.001193	-3.325000	3.323807	-0.041701 	0.001752
-99.700000	-0.001156	-3.323333	3.322177	-0.041792 	0.001753
-99.650000	-0.001156	-3.321667	3.320511	-0.041821 	0.001753
-99.600000	-0.001140	-3.320000	3.318860	-0.041875 	0.001753
-99.550000	-0.001130	-3.318333	3.317203	-0.041919 	0.001754
-99.500000	-0.001117	-3.316667	3.315550	-0.041967 	0.001754
-99.450000	-0.001106	-3.315000	3.313894	-0.042013 	0.001755
-99.400000	-0.001094	-3.313333	3.312239	-0.042060 	0.001755
-99.350000	-0.001083	-3.311667	3.310584	-0.042106 	0.001756
-99.300000	-0.001071	-3.310000	3.308929	-0.042152 	0.001756
-99.250000	-0.001059	-3.308333	3.307274	-0.042198 	0.001757
-99.200000	-0.001048	-3.306667	3.305619	-0.042244 	0.001757
-99.150000	-0.001036	-3.305000	3.303964	-0.042290 	0.001757
-99.100000	-0.001024	-3.303333	3.302309	-0.042335 	0.001758
-99.050000	-0.001012	-3.301667	3.300655	-0.042380 	0.001758
-99.000000	-0.001000	-3.300000	3.299000	-0.042425 	0.001759
-98.950000	-0.000989	-3.298333	3.297344	-0.042470 	0.001759
-98.900000	-0.000977	-3.296667	3.295690	-0.042515 	0.001760
-98.850000	-0.000965	-3.295000	3.294035	-0.042560 	0.001760
-98.800000	-0.000953	-3.293333	3.292380	-0.042604 	0.001760
-98.750000	-0.000941	-3.291667	3.290726	-0.042648 	0.001761
-98.700000	-0.000929	-3.290000	3.289071	-0.042692 	0.001761
-98.650000	-0.000917	-3.288333	3.287416	-0.042736 	0.001762
-98.600000	-0.000905	-3.286667	3.285762	-0.042780 	0.001762
-98.550000	-0.000893	-3.285000	3.284107	-0.042823 	0.001763
-98.500000	-0.000881	-3.283333	3.282452	-0.042867 	0.001763
-98.450000	-0.000869	-3.281667	3.280798	-0.042910 	0.001764
-98.400000	-0.000857	-3.280000	3.279143	-0.042953 	0.001764
-98.350000	-0.000845	-3.278333	3.277488	-0.042996 	0.001764
-98.300000	-0.000833	-3.276667	3.275834	-0.043038 	0.001765
-98.250000	-0.000821	-3.275000	3.274179	-0.043081 	0.001765
-98.200000	-0.000809	-3.273333	3.272524	-0.043123 	0.001766
-98.150000	-0.000797	-3.271667	3.270870	-0.043165 	0.001766
-98.100000	-0.000785	-3.270000	3.269215	-0.043207 	0.001767
-98.050000	-0.000773	-3.268333	3.267560	-0.043249 	0.001767
-98.000000	-0.000761	-3.266667	3.265906	-0.043291 	0.001768
-97.950000	-0.000748	-3.265000	3.264252	-0.043332 	0.001768
-97.900000	-0.000736	-3.263333	3.262597	-0.043373 	0.001769
-97.850000	-0.000724	-3.261667	3.260943	-0.043415 	0.001769
-97.800000	-0.000712	-3.260000	3.259288	-0.043455 	0.001769
-97.750000	-0.000700	-3.258333	3.257633	-0.043496 	0.001770
-97.700000	-0.000687	-3.256667	3.255980	-0.043537 	0.001770
-97.650000	-0.000675	-3.255000	3.254325	-0.043577 	0.001771
-97.600000	-0.000663	-3.253333	3.252670	-0.043617 	0.001771
-97.550000	-0.000651	-3.251667	3.251016	-0.043657 	0.001772
-97.500000	-0.000638	-3.250000	3.249362	-0.043697 	0.001772
-97.450000	-0.000626	-3.248333	3.247707	-0.043737 	0.001773
-97.400000	-0.000614	-3.246667	3.246053	-0.043776 	0.001773
-97.350000	-0.000601	-3.245000	3.244399	-0.043815 	0.001773
-97.300000	-0.000589	-3.243333	3.242744	-0.043854 	0.001774
-97.250000	-0.000576	-3.241667	3.241091	-0.043893 	0.001774
-97.200000	-0.000564	-3.240000	3.239436	-0.043932 	0.001775
-97.150000	-0.000552	-3.238333	3.237781	-0.043970 	0.001775
-97.100000	-0.000539	-3.236667	3.236128	-0.044009 	0.001776
-97.050000	-0.000527	-3.235000	3.234473	-0.044047 	0.001776
-97.000000	-0.000514	-3.233333	3.232819	-0.044085 	0.001777
-96.950000	-0.000502	-3.231667	3.231165	-0.044123 	0.001777
-96.900000	-0.000489	-3.230000	3.229511	-0.044160 	0.001778
-96.850000	-0.000477	-3.228333	3.227856	-0.044198 	0.001778
-96.800000	-0.000464	-3.226667	3.226203	-0.044235 	0.001778
-96.750000	-0.000452	-3.225000	3.224548	-0.044272 	0.001779
-96.700000	-0.000439	-3.223333	3.222894	-0.044309 	0.001779
-96.650000	-0.000427	-3.221667	3.221240	-0.044345 	0.001780
-96.600000	-0.000414	-3.220000	3.219586	-0.044382 	0.001780
-96.550000	-0.000401	-3.218333	3.217932	-0.044418 	0.001781
-96.500000	-0.000389	-3.216667	3.216278	-0.044454 	0.001781
-96.450000	-0.000376	-3.215000	3.214624	-0.044490 	0.001782
-96.400000	-0.000364	-3.213333	3.212969	-0.044525 	0.001782
-96.350000	-0.000351	-3.211667	3.211316	-0.044561 	0.001783
-96.300000	-0.000338	-3.210000	3.209662	-0.044596 	0.001783
-96.250000	-0.000326	-3.208333	3.208007	-0.044631 	0.001783
-96.200000	-0.000313	-3.206667	3.206354	-0.044666 	0.001784
-96.150000	-0.000300	-3.205000	3.204700	-0.044701 	0.001784
-96.100000	-0.000287	-3.203333	3.203046	-0.044735 	0.001785
-96.050000	-0.000275	-3.201667	3.201392	-0.044769 	0.001785
-96.000000	-0.000262	-3.200000	3.199738	-0.044804 	0.001786
-95.950000	-0.000249	-3.198333	3.198084	-0.044837 	0.001786
-95.900000	-0.000236	-3.196667	3.196431	-0.044871 	0.001787
-95.850000	-0.000224	-3.195000	3.194776	-0.044905 	0.001787
-95.800000	-0.000211	-3.193333	3.193122	-0.044938 	0.001788
-95.750000	-0.000198	-3.191667	3.191469	-0.044971 	0.001788
-95.700000	-0.000185	-3.190000	3.189815	-0.045004 	0.001789
-95.650000	-0.000172	-3.188333	3.188161	-0.045037 	0.001789
-95.600000	-0.000159	-3.186667	3.186508	-0.045069 	0.001789
-95.550000	-0.000147	-3.185000	3.184853	-0.045101 	0.001790
-95.500000	-0.000134	-3.183333	3.183199	-0.045134 	0.001790
-95.450000	-0.000121	-3.181667	3.181546	-0.045165 	0.001791
-95.400000	-0.000108	-3.180000	3.179892	-0.045197 	0.001791
-95.350000	-0.000095	-3.178333	3.178238	-0.045229 	0.001792
-95.300000	-0.000082	-3.176667	3.176585	-0.045260 	0.001792
-95.250000	-0.000069	-3.175000	3.174931	-0.045291 	0.001793
-95.200000	-0.000056	-3.173333	3.173277	-0.045322 	0.001793
-95.150000	-0.000043	-3.171667	3.171624	-0.045353 	0.001794
-95.100000	-0.000030	-3.170000	3.169970	-0.045383 	0.001794
-95.050000	-0.000017	-3.168333	3.168316	-0.045413 	0.001795
-95.000000	-0.000004	-3.166667	3.166663	-0.045443 	0.001795
-94.950000	0.000009	-3.165000	3.165009	-0.045473 	0.001796
-94.900000	0.000022	-3.163333	3.163355	-0.045503 	0.001796
-94.850000	0.000035	-3.161667	3.161702	-0.045532 	0.001796
-94.800000	0.000048	-3.160000	3.160048	-0.045561 	0.001797
-94.750000	0.000061	-3.158333	3.158394	-0.045590 	0.001797
-94.700000	0.000074	-3.156667	3.156741	-0.045619 	0.001798
-94.650000	0.000087	-3.155000	3.155087	-0.045648 	0.001798
-94.600000	0.000100	-3.153333	3.153433	-0.045676 	0.001799
-94.550000	0.000114	-3.151667	3.151781	-0.045704 	0.001799
-94.500000	0.000127	-3.150000	3.150127	-0.045732 	0.001800
-94.450000	0.000140	-3.148333	3.148473	-0.045760 	0.001800
-94.400000	0.000153	-3.146667	3.146820	-0.045788 	0.001801
-94.350000	0.000166	-3.145000	3.145166	-0.045815 	0.001801
-94.300000	0.000179	-3.143333	3.143512	-0.045842 	0.001802
-94.250000	0.000193	-3.141667	3.141860	-0.045869 	0.001802
-94.200000	0.000206	-3.140000	3.140206	-0.045896 	0.001803
-94.150000	0.000219	-3.138333	3.138552	-0.045922 	0.001803
-94.100000	0.000232	-3.136667	3.136899	-0.045948 	0.001804
-94.050000	0.000245	-3.135000	3.135245	-0.045974 	0.001804
-94.000000	0.000259	-3.133333	3.133592	-0.046000 	0.001805
-93.950000	0.000272	-3.131667	3.131939	-0.046026 	0.001805
-93.900000	0.000285	-3.130000	3.130285	-0.046051 	0.001805
-93.850000	0.000298	-3.128333	3.128631	-0.046076 	0.001806
-93.800000	0.000312	-3.126667	3.126979	-0.046101 	0.001806
-93.750000	0.000325	-3.125000	3.125325	-0.046126 	0.001807
-93.700000	0.000338	-3.123333	3.123671	-0.046150 	0.001807
-93.650000	0.000352	-3.121667	3.122019	-0.046175 	0.001808
-93.600000	0.000365	-3.120000	3.120365	-0.046199 	0.001808
-93.550000	0.000378	-3.118333	3.118711	-0.046223 	0.001809
-93.500000	0.000391	-3.116667	3.117058	-0.046246 	0.001809
-93.450000	0.000405	-3.115000	3.115405	-0.046270 	0.001810
-93.400000	0.000418	-3.113333	3.113751	-0.046293 	0.001810
-93.350000	0.000432	-3.111667	3.112099	-0.046316 	0.001811
-93.300000	0.000445	-3.110000	3.110445	-0.046339 	0.001811
-93.250000	0.000458	-3.108333	3.108791	-0.046361 	0.001812
-93.200000	0.000472	-3.106667	3.107139	-0.046383 	0.001812
-93.150000	0.000485	-3.105000	3.105485	-0.046405 	0.001813
-93.100000	0.000498	-3.103333	3.103831	-0.046427 	0.001813
-93.050000	0.000512	-3.101667	3.102179	-0.046449 	0.001814
-93.000000	0.000525	-3.100000	3.100525	-0.046470 	0.001814
-92.950000	0.000539	-3.098333	3.098872	-0.046491 	0.001815
-92.900000	0.000552	-3.096667	3.097219	-0.046512 	0.001815
-92.850000	0.000566	-3.095000	3.095566	-0.046533 	0.001816
-92.800000	0.000579	-3.093333	3.093912	-0.046554 	0.001816
-92.750000	0.000593	-3.091667	3.092260	-0.046574 	0.001817
-92.700000	0.000606	-3.090000	3.090606	-0.046594 	0.001817
-92.650000	0.000619	-3.088333	3.088952	-0.046614 	0.001818
-92.600000	0.000633	-3.086667	3.087300	-0.046633 	0.001818
-92.550000	0.000646	-3.085000	3.085646	-0.046653 	0.001819
-92.500000	0.000660	-3.083333	3.083993	-0.046672 	0.001819
-92.450000	0.000673	-3.081667	3.082340	-0.046691 	0.001819
-92.400000	0.000687	-3.080000	3.080687	-0.046709 	0.001820
-92.350000	0.000701	-3.078333	3.079034	-0.046728 	0.001820
-92.300000	0.000714	-3.076667	3.077381	-0.046746 	0.001821
-92.250000	0.000728	-3.075000	3.075728	-0.046764 	0.001821
-92.200000	0.000741	-3.073333	3.074074	-0.046781 	0.001822
-92.150000	0.000755	-3.071667	3.072422	-0.046799 	0.001822
-92.100000	0.000768	-3.070000	3.070768	-0.046816 	0.001823
-92.050000	0.000782	-3.068333	3.069115	-0.046833 	0.001823
-92.000000	0.000795	-3.066667	3.067462	-0.046850 	0.001824
-91.950000	0.000809	-3.065000	3.065809	-0.046867 	0.001824
-91.900000	0.000823	-3.063333	3.064156	-0.046883 	0.001825
-91.850000	0.000836	-3.061667	3.062503	-0.046899 	0.001825
-91.800000	0.000850	-3.060000	3.060850	-0.046915 	0.001826
-91.750000	0.000863	-3.058333	3.059196	-0.046930 	0.001826
-91.700000	0.000877	-3.056667	3.057544	-0.046946 	0.001827
-91.650000	0.000891	-3.055000	3.055891	-0.046961 	0.001827
-91.600000	0.000904	-3.053333	3.054237	-0.046976 	0.001828
-91.550000	0.000918	-3.051667	3.052585	-0.046990 	0.001828
-91.500000	0.000931	-3.050000	3.050931	-0.047005 	0.001829
-91.450000	0.000945	-3.048333	3.049278	-0.047019 	0.001829
-91.400000	0.000959	-3.046667	3.047626	-0.047033 	0.001830
-91.350000	0.000972	-3.045000	3.045972	-0.047046 	0.001830
-91.300000	0.000986	-3.043333	3.044319	-0.047060 	0.001831
-91.250000	0.001000	-3.041667	3.042667	-0.047073 	0.001831
-91.200000	0.001013	-3.040000	3.041013	-0.047086 	0.001832
-91.150000	0.001027	-3.038333	3.039360	-0.047099 	0.001832
-91.100000	0.001041	-3.036667	3.037708	-0.047111 	0.001833
-91.050000	0.001054	-3.035000	3.036054	-0.047123 	0.001833
-91.000000	0.001068	-3.033333	3.034401	-0.047135 	0.001834
-90.950000	0.001082	-3.031667	3.032749	-0.047147 	0.001834
-90.900000	0.001095	-3.030000	3.031095	-0.047159 	0.001835
-90.850000	0.001109	-3.028333	3.029442	-0.047170 	0.001835
-90.800000	0.001123	-3.026667	3.027790	-0.047181 	0.001836
-90.750000	0.001136	-3.025000	3.026136	-0.047192 	0.001836
-90.700000	0.001150	-3.023333	3.024483	-0.047202 	0.001837
-90.650000	0.001164	-3.021667	3.022831	-0.047212 	0.001837
-90.600000	0.001178	-3.020000	3.021178	-0.047222 	0.001838
-90.550000	0.001191	-3.018333	3.019524	-0.047232 	0.001838
-90.500000	0.001205	-3.016667	3.017872	-0.047242 	0.001839
-90.450000	0.001219	-3.015000	3.016219	-0.047251 	0.001839
-90.400000	0.001232	-3.013333	3.014565	-0.047260 	0.001840
-90.350000	0.001246	-3.011667	3.012913	-0.047268 	0.001840
-90.300000	0.001260	-3.010000	3.011260	-0.047277 	0.001841
-90.250000	0.001274	-3.008333	3.009607	-0.047285 	0.001841
-90.200000	0.001287	-3.006667	3.007954	-0.047293 	0.001842
-90.150000	0.001301	-3.005000	3.006301	-0.047301 	0.001842
-90.100000	0.001315	-3.003333	3.004648	-0.047308 	0.001843
-90.050000	0.001329	-3.001667	3.002996	-0.047316 	0.001843
-90.000000	0.001342	-3.000000	3.001342	-0.047323 	0.001844
-89.950000	0.001356	-2.998333	2.999689	-0.047329 	0.001844
-89.900000	0.001370	-2.996667	2.998037	-0.047336 	0.001845
-89.850000	0.001384	-2.995000	2.996384	-0.047342 	0.001845
-89.800000	0.001397	-2.993333	2.994730	-0.047348 	0.001846
-89.750000	0.001411	-2.991667	2.993078	-0.047354 	0.001846
-89.700000	0.001425	-2.990000	2.991425	-0.047359 	0.001847
-89.650000	0.001439	-2.988333	2.989772	-0.047364 	0.001847
-89.600000	0.001452	-2.986667	2.988119	-0.047369 	0.001848
-89.550000	0.001466	-2.985000	2.986466	-0.047374 	0.001848
-89.500000	0.001480	-2.983333	2.984813	-0.047378 	0.001849
-89.450000	0.001494	-2.981667	2.983161	-0.047382 	0.001849
-89.400000	0.001507	-2.980000	2.981507	-0.047386 	0.001850
-89.350000	0.001521	-2.978333	2.979854	-0.047390 	0.001851
-89.300000	0.001535	-2.976667	2.978202	-0.047393 	0.001851
-89.250000	0.001549	-2.975000	2.976549	-0.047396 	0.001852
-89.200000	0.001562	-2.973333	2.974895	-0.047399 	0.001852
-89.150000	0.001576	-2.971667	2.973243	-0.047402 	0.001853
-89.100000	0.001590	-2.970000	2.971590	-0.047404 	0.001853
-89.050000	0.001604	-2.968333	2.969937	-0.047406 	0.001854
-89.000000	0.001617	-2.966667	2.968284	-0.047408 	0.001854
-88.950000	0.001631	-2.965000	2.966631	-0.047410 	0.001855
-88.900000	0.001645	-2.963333	2.964978	-0.047411 	0.001855
-88.850000	0.001659	-2.961667	2.963326	-0.047412 	0.001856
-88.800000	0.001672	-2.960000	2.961672	-0.047413 	0.001856
-88.750000	0.001686	-2.958333	2.960019	-0.047413 	0.001857
-88.700000	0.001700	-2.956667	2.958367	-0.047413 	0.001857
-88.650000	0.001714	-2.955000	2.956714	-0.047413 	0.001858
-88.600000	0.001727	-2.953333	2.955060	-0.047413 	0.001858
-88.550000	0.001741	-2.951667	2.953408	-0.047412 	0.001859
-88.500000	0.001755	-2.950000	2.951755	-0.047411 	0.001859
-88.450000	0.001769	-2.948333	2.950102	-0.047410 	0.001860
-88.400000	0.001782	-2.946667	2.948449	-0.047409 	0.001860
-88.350000	0.001796	-2.945000	2.946796	-0.047407 	0.001861
-88.300000	0.001810	-2.943333	2.945143	-0.047405 	0.001861
-88.250000	0.001824	-2.941667	2.943491	-0.047403 	0.001862
-88.200000	0.001837	-2.940000	2.941837	-0.047400 	0.001862
-88.150000	0.001851	-2.938333	2.940184	-0.047398 	0.001863
-88.100000	0.001865	-2.936667	2.938532	-0.047395 	0.001863
-88.050000	0.001879	-2.935000	2.936879	-0.047391 	0.001864
-88.000000	0.001892	-2.933333	2.935225	-0.047388 	0.001865
-87.950000	0.001906	-2.931667	2.933573	-0.047384 	0.001865
-87.900000	0.001920	-2.930000	2.931920	-0.047380 	0.001866
-87.850000	0.001933	-2.928333	2.930266	-0.047375 	0.001866
-87.800000	0.001947	-2.926667	2.928614	-0.047371 	0.001867
-87.750000	0.001961	-2.925000	2.926961	-0.047366 	0.001867
-87.700000	0.001975	-2.923333	2.925308	-0.047360 	0.001868
-87.650000	0.001988	-2.921667	2.923655	-0.047355 	0.001868
-87.600000	0.002002	-2.920000	2.922002	-0.047349 	0.001869
-87.550000	0.002016	-2.918333	2.920349	-0.047343 	0.001869
-87.500000	0.002029	-2.916667	2.918696	-0.047337 	0.001870
-87.450000	0.002043	-2.915000	2.917043	-0.047330 	0.001870
-87.400000	0.002057	-2.913333	2.915390	-0.047323 	0.001871
-87.350000	0.002070	-2.911667	2.913737	-0.047316 	0.001871
-87.300000	0.002084	-2.910000	2.912084	-0.047308 	0.001872
-87.250000	0.002098	-2.908333	2.910431	-0.047301 	0.001872
-87.200000	0.002111	-2.906667	2.908778	-0.047293 	0.001873
-87.150000	0.002125	-2.905000	2.907125	-0.047284 	0.001874
-87.100000	0.002139	-2.903333	2.905472	-0.047276 	0.001874
-87.050000	0.002152	-2.901667	2.903819	-0.047267 	0.001875
-87.000000	0.002166	-2.900000	2.902166	-0.047258 	0.001875
-86.950000	0.002180	-2.898333	2.900513	-0.047248 	0.001876
-86.900000	0.002193	-2.896667	2.898860	-0.047239 	0.001876
-86.850000	0.002207	-2.895000	2.897207	-0.047229 	0.001877
-86.800000	0.002220	-2.893333	2.895553	-0.047218 	0.001877
-86.750000	0.002234	-2.891667	2.893901	-0.047208 	0.001878
-86.700000	0.002248	-2.890000	2.892248	-0.047197 	0.001878
-86.650000	0.002261	-2.888333	2.890594	-0.047186 	0.001879
-86.600000	0.002275	-2.886667	2.888942	-0.047174 	0.001879
-86.550000	0.002288	-2.885000	2.887288	-0.047162 	0.001880
-86.500000	0.002302	-2.883333	2.885635	-0.047150 	0.001880
-86.450000	0.002316	-2.881667	2.883983	-0.047138 	0.001881
-86.400000	0.002329	-2.880000	2.882329	-0.047125 	0.001882
-86.350000	0.002343	-2.878333	2.880676	-0.047113 	0.001882
-86.300000	0.002356	-2.876667	2.879023	-0.047099 	0.001883
-86.250000	0.002370	-2.875000	2.877370	-0.047086 	0.001883
-86.200000	0.002383	-2.873333	2.875716	-0.047072 	0.001884
-86.150000	0.002397	-2.871667	2.874064	-0.047058 	0.001884
-86.100000	0.002410	-2.870000	2.872410	-0.047044 	0.001885
-86.050000	0.002424	-2.868333	2.870757	-0.047029 	0.001885
-86.000000	0.002437	-2.866667	2.869104	-0.047014 	0.001886
-85.950000	0.002451	-2.865000	2.867451	-0.046999 	0.001886
-85.900000	0.002464	-2.863333	2.865797	-0.046983 	0.001887
-85.850000	0.002478	-2.861667	2.864145	-0.046968 	0.001888
-85.800000	0.002491	-2.860000	2.862491	-0.046952 	0.001888
-85.750000	0.002504	-2.858333	2.860837	-0.046935 	0.001889
-85.700000	0.002518	-2.856667	2.859185	-0.046918 	0.001889
-85.650000	0.002531	-2.855000	2.857531	-0.046901 	0.001890
-85.600000	0.002545	-2.853333	2.855878	-0.046884 	0.001890
-85.550000	0.002558	-2.851667	2.854225	-0.046866 	0.001891
-85.500000	0.002572	-2.850000	2.852572	-0.046849 	0.001891
-85.450000	0.002585	-2.848333	2.850918	-0.046830 	0.001892
-85.400000	0.002598	-2.846667	2.849265	-0.046812 	0.001892
-85.350000	0.002612	-2.845000	2.847612	-0.046793 	0.001893
-85.300000	0.002625	-2.843333	2.845958	-0.046774 	0.001894
-85.250000	0.002638	-2.841667	2.844305	-0.046755 	0.001894
-85.200000	0.002652	-2.840000	2.842652	-0.046735 	0.001895
-85.150000	0.002665	-2.838333	2.840998	-0.046715 	0.001895
-85.100000	0.002678	-2.836667	2.839345	-0.046695 	0.001896
-85.050000	0.002691	-2.835000	2.837691	-0.046674 	0.001896
-85.000000	0.002705	-2.833333	2.836038	-0.046653 	0.001897
-84.950000	0.002718	-2.831667	2.834385	-0.046632 	0.001897
-84.900000	0.002731	-2.830000	2.832731	-0.046610 	0.001898
-84.850000	0.002744	-2.828333	2.831077	-0.046589 	0.001899
-84.800000	0.002758	-2.826667	2.829425	-0.046566 	0.001899
-84.750000	0.002771	-2.825000	2.827771	-0.046544 	0.001900
-84.700000	0.002784	-2.823333	2.826117	-0.046521 	0.001900
-84.650000	0.002797	-2.821667	2.824464	-0.046498 	0.001901
-84.600000	0.002810	-2.820000	2.822810	-0.046475 	0.001901
-84.550000	0.002823	-2.818333	2.821156	-0.046451 	0.001902
-84.500000	0.002837	-2.816667	2.819504	-0.046427 	0.001902
-84.450000	0.002850	-2.815000	2.817850	-0.046403 	0.001903
-84.400000	0.002863	-2.813333	2.816196	-0.046378 	0.001904
-84.350000	0.002876	-2.811667	2.814543	-0.046353 	0.001904
-84.300000	0.002889	-2.810000	2.812889	-0.046328 	0.001905
-84.250000	0.002902	-2.808333	2.811235	-0.046302 	0.001905
-84.200000	0.002915	-2.806667	2.809582	-0.046277 	0.001906
-84.150000	0.002928	-2.805000	2.807928	-0.046250 	0.001906
-84.100000	0.002941	-2.803333	2.806274	-0.046224 	0.001907
-84.050000	0.002954	-2.801667	2.804621	-0.046197 	0.001907
-84.000000	0.002967	-2.800000	2.802967	-0.046170 	0.001908
-83.950000	0.002980	-2.798333	2.801313	-0.046143 	0.001909
-83.900000	0.002993	-2.796667	2.799660	-0.046115 	0.001909
-83.850000	0.003006	-2.795000	2.798006	-0.046087 	0.001910
-83.800000	0.003019	-2.793333	2.796352	-0.046058 	0.001910
-83.750000	0.003032	-2.791667	2.794699	-0.046030 	0.001911
-83.700000	0.003044	-2.790000	2.793044	-0.046001 	0.001911
-83.650000	0.003057	-2.788333	2.791390	-0.045971 	0.001912
-83.600000	0.003070	-2.786667	2.789737	-0.045942 	0.001913
-83.550000	0.003083	-2.785000	2.788083	-0.045912 	0.001913
-83.500000	0.003096	-2.783333	2.786429	-0.045881 	0.001914
-83.450000	0.003108	-2.781667	2.784775	-0.045851 	0.001914
-83.400000	0.003121	-2.780000	2.783121	-0.045820 	0.001915
-83.350000	0.003134	-2.778333	2.781467	-0.045788 	0.001915
-83.300000	0.003147	-2.776667	2.779814	-0.045757 	0.001916
-83.250000	0.003159	-2.775000	2.778159	-0.045725 	0.001916
-83.200000	0.003172	-2.773333	2.776505	-0.045693 	0.001917
-83.150000	0.003185	-2.771667	2.774852	-0.045660 	0.001918
-83.100000	0.003197	-2.770000	2.773197	-0.045627 	0.001918
-83.050000	0.003210	-2.768333	2.771543	-0.045594 	0.001919
-83.000000	0.003222	-2.766667	2.769889	-0.045560 	0.001919
-82.950000	0.003235	-2.765000	2.768235	-0.045527 	0.001920
-82.900000	0.003248	-2.763333	2.766581	-0.045492 	0.001921
-82.850000	0.003260	-2.761667	2.764927	-0.045458 	0.001921
-82.800000	0.003273	-2.760000	2.763273	-0.045423 	0.001922
-82.750000	0.003285	-2.758333	2.761618	-0.045388 	0.001922
-82.700000	0.003297	-2.756667	2.759964	-0.045352 	0.001923
-82.650000	0.003310	-2.755000	2.758310	-0.045316 	0.001923
-82.600000	0.003322	-2.753333	2.756655	-0.045280 	0.001924
-82.550000	0.003335	-2.751667	2.755002	-0.045244 	0.001925
-82.500000	0.003347	-2.750000	2.753347	-0.045207 	0.001925
-82.450000	0.003359	-2.748333	2.751692	-0.045170 	0.001926
-82.400000	0.003372	-2.746667	2.750039	-0.045132 	0.001926
-82.350000	0.003384	-2.745000	2.748384	-0.045094 	0.001927
-82.300000	0.003396	-2.743333	2.746729	-0.045056 	0.001927
-82.250000	0.003408	-2.741667	2.745075	-0.045017 	0.001928
-82.200000	0.003421	-2.740000	2.743421	-0.044979 	0.001929
-82.150000	0.003433	-2.738333	2.741766	-0.044939 	0.001929
-82.100000	0.003445	-2.736667	2.740112	-0.044900 	0.001930
-82.050000	0.003457	-2.735000	2.738457	-0.044860 	0.001930
-82.000000	0.003469	-2.733333	2.736802	-0.044820 	0.001931
-81.950000	0.003481	-2.731667	2.735148	-0.044779 	0.001932
-81.900000	0.003493	-2.730000	2.733493	-0.044738 	0.001932
-81.850000	0.003505	-2.728333	2.731838	-0.044697 	0.001933
-81.800000	0.003517	-2.726667	2.730184	-0.044655 	0.001933
-81.750000	0.003529	-2.725000	2.728529	-0.044613 	0.001934
-81.700000	0.003541	-2.723333	2.726874	-0.044571 	0.001934
-81.650000	0.003553	-2.721667	2.725220	-0.044528 	0.001935
-81.600000	0.003565	-2.720000	2.723565	-0.044485 	0.001936
-81.550000	0.003577	-2.718333	2.721910	-0.044442 	0.001936
-81.500000	0.003588	-2.716667	2.720255	-0.044398 	0.001937
-81.450000	0.003600	-2.715000	2.718600	-0.044354 	0.001937
-81.400000	0.003612	-2.713333	2.716945	-0.044310 	0.001938
-81.350000	0.003624	-2.711667	2.715291	-0.044265 	0.001939
-81.300000	0.003635	-2.710000	2.713635	-0.044220 	0.001939
-81.250000	0.003647	-2.708333	2.711980	-0.044175 	0.001940
-81.200000	0.003659	-2.706667	2.710326	-0.044129 	0.001940
-81.150000	0.003670	-2.705000	2.708670	-0.044083 	0.001941
-81.100000	0.003682	-2.703333	2.707015	-0.044037 	0.001942
-81.050000	0.003693	-2.701667	2.705360	-0.043990 	0.001942
-81.000000	0.003705	-2.700000	2.703705	-0.043943 	0.001943
-80.950000	0.003716	-2.698333	2.702049	-0.043895 	0.001943
-80.900000	0.003728	-2.696667	2.700395	-0.043847 	0.001944
-80.850000	0.003739	-2.695000	2.698739	-0.043799 	0.001944
-80.800000	0.003751	-2.693333	2.697084	-0.043751 	0.001945
-80.750000	0.003762	-2.691667	2.695429	-0.043702 	0.001946
-80.700000	0.003773	-2.690000	2.693773	-0.043652 	0.001946
-80.650000	0.003785	-2.688333	2.692118	-0.043603 	0.001947
-80.600000	0.003796	-2.686667	2.690463	-0.043553 	0.001947
-80.550000	0.003807	-2.685000	2.688807	-0.043502 	0.001948
-80.500000	0.003818	-2.683333	2.687151	-0.043452 	0.001949
-80.450000	0.003830	-2.681667	2.685497	-0.043401 	0.001949
-80.400000	0.003841	-2.680000	2.683841	-0.043349 	0.001950
-80.350000	0.003852	-2.678333	2.682185	-0.043297 	0.001950
-80.300000	0.003863	-2.676667	2.680530	-0.043245 	0.001951
-80.250000	0.003874	-2.675000	2.678874	-0.043193 	0.001952
-80.200000	0.003885	-2.673333	2.677218	-0.043140 	0.001952
-80.150000	0.003896	-2.671667	2.675563	-0.043087 	0.001953
-80.100000	0.003907	-2.670000	2.673907	-0.043033 	0.001954
-80.050000	0.003918	-2.668333	2.672251	-0.042979 	0.001954
-80.000000	0.003928	-2.666667	2.670595	-0.042925 	0.001955
-79.950000	0.003939	-2.665000	2.668939	-0.042870 	0.001955
-79.900000	0.003950	-2.663333	2.667283	-0.042815 	0.001956
-79.850000	0.003961	-2.661667	2.665628	-0.042760 	0.001957
-79.800000	0.003971	-2.660000	2.663971	-0.042704 	0.001957
-79.750000	0.003982	-2.658333	2.662315	-0.042648 	0.001958
-79.700000	0.003993	-2.656667	2.660660	-0.042592 	0.001958
-79.650000	0.004003	-2.655000	2.659003	-0.042535 	0.001959
-79.600000	0.004014	-2.653333	2.657347	-0.042477 	0.001960
-79.550000	0.004024	-2.651667	2.655691	-0.042420 	0.001960
-79.500000	0.004035	-2.650000	2.654035	-0.042362 	0.001961
-79.450000	0.004045	-2.648333	2.652378	-0.042304 	0.001961
-79.400000	0.004056	-2.646667	2.650723	-0.042245 	0.001962
-79.350000	0.004066	-2.645000	2.649066	-0.042186 	0.001963
-79.300000	0.004076	-2.643333	2.647409	-0.042127 	0.001963
-79.250000	0.004087	-2.641667	2.645754	-0.042067 	0.001964
-79.200000	0.004097	-2.640000	2.644097	-0.042007 	0.001964
-79.150000	0.004107	-2.638333	2.642440	-0.041946 	0.001965
-79.100000	0.004117	-2.636667	2.640784	-0.041885 	0.001966
-79.050000	0.004127	-2.635000	2.639127	-0.041824 	0.001966
-79.000000	0.004138	-2.633333	2.637471	-0.041762 	0.001967
-78.950000	0.004148	-2.631667	2.635815	-0.041700 	0.001968
-78.900000	0.004158	-2.630000	2.634158	-0.041638 	0.001968
-78.850000	0.004168	-2.628333	2.632501	-0.041575 	0.001969
-78.800000	0.004178	-2.626667	2.630845	-0.041512 	0.001969
-78.750000	0.004187	-2.625000	2.629187	-0.041449 	0.001970
-78.700000	0.004197	-2.623333	2.627530	-0.041385 	0.001971
-78.650000	0.004207	-2.621667	2.625874	-0.041321 	0.001971
-78.600000	0.004217	-2.620000	2.624217	-0.041256 	0.001972
-78.550000	0.004227	-2.618333	2.622560	-0.041191 	0.001973
-78.500000	0.004236	-2.616667	2.620903	-0.041126 	0.001973
-78.450000	0.004246	-2.615000	2.619246	-0.041060 	0.001974
-78.400000	0.004256	-2.613333	2.617589	-0.040994 	0.001974
-78.350000	0.004265	-2.611667	2.615932	-0.040928 	0.001975
-78.300000	0.004275	-2.610000	2.614275	-0.040861 	0.001976
-78.250000	0.004284	-2.608333	2.612617	-0.040794 	0.001976
-78.200000	0.004294	-2.606667	2.610961	-0.040726 	0.001977
-78.150000	0.004303	-2.605000	2.609303	-0.040658 	0.001978
-78.100000	0.004313	-2.603333	2.607646	-0.040590 	0.001978
-78.050000	0.004322	-2.601667	2.605989	-0.040521 	0.001979
-78.000000	0.004331	-2.600000	2.604331	-0.040452 	0.001979
-77.950000	0.004341	-2.598333	2.602674	-0.040383 	0.001980
-77.900000	0.004350	-2.596667	2.601017	-0.040313 	0.001981
-77.850000	0.004359	-2.595000	2.599359	-0.040243 	0.001981
-77.800000	0.004368	-2.593333	2.597701	-0.040172 	0.001982
-77.750000	0.004377	-2.591667	2.596044	-0.040101 	0.001983
-77.700000	0.004386	-2.590000	2.594386	-0.040030 	0.001983
-77.650000	0.004395	-2.588333	2.592728	-0.039958 	0.001984
-77.600000	0.004404	-2.586667	2.591071	-0.039886 	0.001984
-77.550000	0.004413	-2.585000	2.589413	-0.039814 	0.001985
-77.500000	0.004422	-2.583333	2.587755	-0.039741 	0.001986
-77.450000	0.004431	-2.581667	2.586098	-0.039668 	0.001986
-77.400000	0.004440	-2.580000	2.584440	-0.039594 	0.001987
-77.350000	0.004449	-2.578333	2.582782	-0.039521 	0.001988
-77.300000	0.004458	-2.576667	2.581125	-0.039446 	0.001988
-77.250000	0.004466	-2.575000	2.579466	-0.039372 	0.001989
-77.200000	0.004475	-2.573333	2.577808	-0.039297 	0.001990
-77.150000	0.004484	-2.571667	2.576151	-0.039221 	0.001990
-77.100000	0.004492	-2.570000	2.574492	-0.039145 	0.001991
-77.050000	0.004501	-2.568333	2.572834	-0.039069 	0.001992
-77.000000	0.004509	-2.566667	2.571176	-0.038993 	0.001992
-76.950000	0.004518	-2.565000	2.569518	-0.038916 	0.001993
-76.900000	0.004526	-2.563333	2.567859	-0.038838 	0.001993
-76.850000	0.004535	-2.561667	2.566202	-0.038761 	0.001994
-76.800000	0.004543	-2.560000	2.564543	-0.038683 	0.001995
-76.750000	0.004551	-2.558333	2.562884	-0.038604 	0.001995
-76.700000	0.004560	-2.556667	2.561227	-0.038525 	0.001996
-76.650000	0.004568	-2.555000	2.559568	-0.038446 	0.001997
-76.600000	0.004576	-2.553333	2.557909	-0.038367 	0.001997
-76.550000	0.004584	-2.551667	2.556251	-0.038287 	0.001998
-76.500000	0.004592	-2.550000	2.554592	-0.038207 	0.001999
-76.450000	0.004600	-2.548333	2.552933	-0.038126 	0.001999
-76.400000	0.004608	-2.546667	2.551275	-0.038045 	0.002000
-76.350000	0.004616	-2.545000	2.549616	-0.037963 	0.002001
-76.300000	0.004624	-2.543333	2.547957	-0.037882 	0.002001
-76.250000	0.004632	-2.541667	2.546299	-0.037800 	0.002002
-76.200000	0.004640	-2.540000	2.544640	-0.037717 	0.002003
-76.150000	0.004648	-2.538333	2.542981	-0.037634 	0.002003
-76.100000	0.004656	-2.536667	2.541323	-0.037551 	0.002004
-76.050000	0.004663	-2.535000	2.539663	-0.037467 	0.002004
-76.000000	0.004671	-2.533333	2.538004	-0.037383 	0.002005
-75.950000	0.004679	-2.531667	2.536346	-0.037299 	0.002006
-75.900000	0.004686	-2.530000	2.534686	-0.037214 	0.002006
-75.850000	0.004694	-2.528333	2.533027	-0.037129 	0.002007
-75.800000	0.004702	-2.526667	2.531369	-0.037043 	0.002008
-75.750000	0.004709	-2.525000	2.529709	-0.036957 	0.002008
-75.700000	0.004717	-2.523333	2.528050	-0.036871 	0.002009
-75.650000	0.004724	-2.521667	2.526391	-0.036784 	0.002010
-75.600000	0.004731	-2.520000	2.524731	-0.036697 	0.002010
-75.550000	0.004739	-2.518333	2.523072	-0.036610 	0.002011
-75.500000	0.004746	-2.516667	2.521413	-0.036522 	0.002012
-75.450000	0.004753	-2.515000	2.519753	-0.036434 	0.002012
-75.400000	0.004761	-2.513333	2.518094	-0.036346 	0.002013
-75.350000	0.004768	-2.511667	2.516435	-0.036257 	0.002014
-75.300000	0.004775	-2.510000	2.514775	-0.036168 	0.002014
-75.250000	0.004782	-2.508333	2.513115	-0.036078 	0.002015
-75.200000	0.004789	-2.506667	2.511456	-0.035988 	0.002016
-75.150000	0.004796	-2.505000	2.509796	-0.035898 	0.002016
-75.100000	0.004803	-2.503333	2.508136	-0.035807 	0.002017
-75.050000	0.004810	-2.501667	2.506477	-0.035716 	0.002018
-75.000000	0.004817	-2.500000	2.504817	-0.035624 	0.002018
-74.950000	0.004824	-2.498333	2.503157	-0.035533 	0.002019
-74.900000	0.004831	-2.496667	2.501498	-0.035440 	0.002020
-74.850000	0.004838	-2.495000	2.499838	-0.035348 	0.002020
-74.800000	0.004844	-2.493333	2.498177	-0.035255 	0.002021