VARIABLES = X,Ksi,B,H,U,tau 
ZONE T="Time 70.000000", I=2200, DATAPACKING=POINT
-100.000000	-0.005716	-3.333333	3.327617	0.038125 	0.001751
-99.950000	-0.001642	-3.331667	3.330025	0.031230 	0.001751
-99.900000	-0.003353	-3.330000	3.326647	0.034260 	0.001751
-99.850000	-0.002569	-3.328333	3.325764	0.033010 	0.001752
-99.800000	-0.002861	-3.326667	3.323806	0.033605 	0.001752
-99.750000	-0.002689	-3.325000	3.322311	0.033403 	0.001753
-99.700000	-0.002717	-3.323333	3.320616	0.033545 	0.001753
-99.650000	-0.002658	-3.321667	3.319009	0.033539 	0.001753
-99.600000	-0.002637	-3.320000	3.317363	0.033597 	0.001754
-99.550000	-0.002600	-3.318333	3.315733	0.033627 	0.001754
-99.500000	-0.002569	-3.316667	3.314098	0.033668 	0.001755
-99.450000	-0.002536	-3.315000	3.312464	0.033705 	0.001755
-99.400000	-0.002503	-3.313333	3.310830	0.033743 	0.001756
-99.350000	-0.002470	-3.311667	3.309197	0.033781 	0.001756
-99.300000	-0.002438	-3.310000	3.307562	0.033818 	0.001756
-99.250000	-0.002405	-3.308333	3.305928	0.033856 	0.001757
-99.200000	-0.002372	-3.306667	3.304295	0.033893 	0.001757
-99.150000	-0.002340	-3.305000	3.302660	0.033930 	0.001758
-99.100000	-0.002307	-3.303333	3.301026	0.033968 	0.001758
-99.050000	-0.002274	-3.301667	3.299393	0.034005 	0.001759
-99.000000	-0.002241	-3.300000	3.297759	0.034041 	0.001759
-98.950000	-0.002208	-3.298333	3.296125	0.034078 	0.001759
-98.900000	-0.002175	-3.296667	3.294492	0.034115 	0.001760
-98.850000	-0.002142	-3.295000	3.292858	0.034151 	0.001760
-98.800000	-0.002109	-3.293333	3.291224	0.034188 	0.001761
-98.750000	-0.002076	-3.291667	3.289591	0.034224 	0.001761
-98.700000	-0.002043	-3.290000	3.287957	0.034260 	0.001762
-98.650000	-0.002010	-3.288333	3.286323	0.034296 	0.001762
-98.600000	-0.001977	-3.286667	3.284690	0.034332 	0.001763
-98.550000	-0.001944	-3.285000	3.283056	0.034368 	0.001763
-98.500000	-0.001910	-3.283333	3.281423	0.034403 	0.001763
-98.450000	-0.001877	-3.281667	3.279790	0.034439 	0.001764
-98.400000	-0.001844	-3.280000	3.278156	0.034474 	0.001764
-98.350000	-0.001811	-3.278333	3.276522	0.034509 	0.001765
-98.300000	-0.001777	-3.276667	3.274890	0.034544 	0.001765
-98.250000	-0.001744	-3.275000	3.273256	0.034579 	0.001766
-98.200000	-0.001710	-3.273333	3.271623	0.034614 	0.001766
-98.150000	-0.001677	-3.271667	3.269990	0.034649 	0.001767
-98.100000	-0.001644	-3.270000	3.268356	0.034683 	0.001767
-98.050000	-0.001610	-3.268333	3.266723	0.034718 	0.001767
-98.000000	-0.001577	-3.266667	3.265090	0.034752 	0.001768
-97.950000	-0.001543	-3.265000	3.263457	0.034786 	0.001768
-97.900000	-0.001509	-3.263333	3.261824	0.034820 	0.001769
-97.850000	-0.001476	-3.261667	3.260191	0.034854 	0.001769
-97.800000	-0.001442	-3.260000	3.258558	0.034888 	0.001770
-97.750000	-0.001409	-3.258333	3.256924	0.034921 	0.001770
-97.700000	-0.001375	-3.256667	3.255292	0.034955 	0.001770
-97.650000	-0.001341	-3.255000	3.253659	0.034988 	0.001771
-97.600000	-0.001307	-3.253333	3.252026	0.035021 	0.001771
-97.550000	-0.001274	-3.251667	3.250393	0.035055 	0.001772
-97.500000	-0.001240	-3.250000	3.248760	0.035087 	0.001772
-97.450000	-0.001206	-3.248333	3.247127	0.035120 	0.001773
-97.400000	-0.001172	-3.246667	3.245495	0.035153 	0.001773
-97.350000	-0.001138	-3.245000	3.243862	0.035185 	0.001774
-97.300000	-0.001104	-3.243333	3.242229	0.035218 	0.001774
-97.250000	-0.001070	-3.241667	3.240597	0.035250 	0.001774
-97.200000	-0.001036	-3.240000	3.238964	0.035282 	0.001775
-97.150000	-0.001002	-3.238333	3.237331	0.035314 	0.001775
-97.100000	-0.000968	-3.236667	3.235699	0.035346 	0.001776
-97.050000	-0.000934	-3.235000	3.234066	0.035378 	0.001776
-97.000000	-0.000900	-3.233333	3.232433	0.035409 	0.001777
-96.950000	-0.000866	-3.231667	3.230801	0.035441 	0.001777
-96.900000	-0.000832	-3.230000	3.229168	0.035472 	0.001778
-96.850000	-0.000798	-3.228333	3.227535	0.035503 	0.001778
-96.800000	-0.000763	-3.226667	3.225904	0.035534 	0.001779
-96.750000	-0.000729	-3.225000	3.224271	0.035565 	0.001779
-96.700000	-0.000695	-3.223333	3.222638	0.035595 	0.001779
-96.650000	-0.000661	-3.221667	3.221006	0.035626 	0.001780
-96.600000	-0.000626	-3.220000	3.219374	0.035656 	0.001780
-96.550000	-0.000592	-3.218333	3.217741	0.035686 	0.001781
-96.500000	-0.000557	-3.216667	3.216110	0.035716 	0.001781
-96.450000	-0.000523	-3.215000	3.214477	0.035746 	0.001782
-96.400000	-0.000489	-3.213333	3.212844	0.035776 	0.001782
-96.350000	-0.000454	-3.211667	3.211213	0.035806 	0.001783
-96.300000	-0.000420	-3.210000	3.209580	0.035835 	0.001783
-96.250000	-0.000385	-3.208333	3.207948	0.035865 	0.001784
-96.200000	-0.000350	-3.206667	3.206317	0.035894 	0.001784
-96.150000	-0.000316	-3.205000	3.204684	0.035923 	0.001784
-96.100000	-0.000281	-3.203333	3.203052	0.035952 	0.001785
-96.050000	-0.000247	-3.201667	3.201420	0.035980 	0.001785
-96.000000	-0.000212	-3.200000	3.199788	0.036009 	0.001786
-95.950000	-0.000177	-3.198333	3.198156	0.036037 	0.001786
-95.900000	-0.000142	-3.196667	3.196525	0.036066 	0.001787
-95.850000	-0.000108	-3.195000	3.194892	0.036094 	0.001787
-95.800000	-0.000073	-3.193333	3.193260	0.036122 	0.001788
-95.750000	-0.000038	-3.191667	3.191629	0.036149 	0.001788
-95.700000	-0.000003	-3.190000	3.189997	0.036177 	0.001789
-95.650000	0.000032	-3.188333	3.188365	0.036204 	0.001789
-95.600000	0.000067	-3.186667	3.186734	0.036232 	0.001789
-95.550000	0.000102	-3.185000	3.185102	0.036259 	0.001790
-95.500000	0.000137	-3.183333	3.183470	0.036286 	0.001790
-95.450000	0.000172	-3.181667	3.181839	0.036313 	0.001791
-95.400000	0.000207	-3.180000	3.180207	0.036339 	0.001791
-95.350000	0.000242	-3.178333	3.178575	0.036366 	0.001792
-95.300000	0.000277	-3.176667	3.176944	0.036392 	0.001792
-95.250000	0.000312	-3.175000	3.175312	0.036418 	0.001793
-95.200000	0.000347	-3.173333	3.173680	0.036444 	0.001793
-95.150000	0.000382	-3.171667	3.172049	0.036470 	0.001794
-95.100000	0.000417	-3.170000	3.170417	0.036496 	0.001794
-95.050000	0.000453	-3.168333	3.168786	0.036521 	0.001794
-95.000000	0.000488	-3.166667	3.167155	0.036546 	0.001795
-94.950000	0.000523	-3.165000	3.165523	0.036572 	0.001795
-94.900000	0.000559	-3.163333	3.163892	0.036597 	0.001796
-94.850000	0.000594	-3.161667	3.162261	0.036621 	0.001796
-94.800000	0.000629	-3.160000	3.160629	0.036646 	0.001797
-94.750000	0.000665	-3.158333	3.158998	0.036670 	0.001797
-94.700000	0.000700	-3.156667	3.157367	0.036695 	0.001798
-94.650000	0.000736	-3.155000	3.155736	0.036719 	0.001798
-94.600000	0.000771	-3.153333	3.154104	0.036743 	0.001799
-94.550000	0.000807	-3.151667	3.152474	0.036766 	0.001799
-94.500000	0.000842	-3.150000	3.150842	0.036790 	0.001800
-94.450000	0.000878	-3.148333	3.149211	0.036813 	0.001800
-94.400000	0.000914	-3.146667	3.147581	0.036837 	0.001801
-94.350000	0.000949	-3.145000	3.145949	0.036860 	0.001801
-94.300000	0.000985	-3.143333	3.144318	0.036883 	0.001801
-94.250000	0.001021	-3.141667	3.142688	0.036905 	0.001802
-94.200000	0.001056	-3.140000	3.141056	0.036928 	0.001802
-94.150000	0.001092	-3.138333	3.139425	0.036950 	0.001803
-94.100000	0.001128	-3.136667	3.137795	0.036972 	0.001803
-94.050000	0.001164	-3.135000	3.136164	0.036994 	0.001804
-94.000000	0.001200	-3.133333	3.134533	0.037016 	0.001804
-93.950000	0.001236	-3.131667	3.132903	0.037037 	0.001805
-93.900000	0.001272	-3.130000	3.131272	0.037059 	0.001805
-93.850000	0.001308	-3.128333	3.129641	0.037080 	0.001806
-93.800000	0.001344	-3.126667	3.128011	0.037101 	0.001806
-93.750000	0.001380	-3.125000	3.126380	0.037122 	0.001807
-93.700000	0.001416	-3.123333	3.124749	0.037142 	0.001807
-93.650000	0.001452	-3.121667	3.123119	0.037163 	0.001808
-93.600000	0.001488	-3.120000	3.121488	0.037183 	0.001808
-93.550000	0.001524	-3.118333	3.119857	0.037203 	0.001809
-93.500000	0.001560	-3.116667	3.118227	0.037223 	0.001809
-93.450000	0.001597	-3.115000	3.116597	0.037243 	0.001809
-93.400000	0.001633	-3.113333	3.114966	0.037262 	0.001810
-93.350000	0.001669	-3.111667	3.113336	0.037281 	0.001810
-93.300000	0.001706	-3.110000	3.111706	0.037300 	0.001811
-93.250000	0.001742	-3.108333	3.110075	0.037319 	0.001811
-93.200000	0.001778	-3.106667	3.108445	0.037338 	0.001812
-93.150000	0.001815	-3.105000	3.106815	0.037356 	0.001812
-93.100000	0.001851	-3.103333	3.105184	0.037374 	0.001813
-93.050000	0.001888	-3.101667	3.103555	0.037392 	0.001813
-93.000000	0.001925	-3.100000	3.101925	0.037410 	0.001814
-92.950000	0.001961	-3.098333	3.100294	0.037428 	0.001814
-92.900000	0.001998	-3.096667	3.098665	0.037445 	0.001815
-92.850000	0.002034	-3.095000	3.097034	0.037462 	0.001815
-92.800000	0.002071	-3.093333	3.095404	0.037479 	0.001816
-92.750000	0.002108	-3.091667	3.093775	0.037496 	0.001816
-92.700000	0.002145	-3.090000	3.092145	0.037513 	0.001817
-92.650000	0.002182	-3.088333	3.090515	0.037529 	0.001817
-92.600000	0.002218	-3.086667	3.088885	0.037545 	0.001818
-92.550000	0.002255	-3.085000	3.087255	0.037561 	0.001818
-92.500000	0.002292	-3.083333	3.085625	0.037577 	0.001819
-92.450000	0.002329	-3.081667	3.083996	0.037592 	0.001819
-92.400000	0.002366	-3.080000	3.082366	0.037607 	0.001819
-92.350000	0.002403	-3.078333	3.080736	0.037622 	0.001820
-92.300000	0.002440	-3.076667	3.079107	0.037637 	0.001820
-92.250000	0.002478	-3.075000	3.077478	0.037652 	0.001821
-92.200000	0.002515	-3.073333	3.075848	0.037666 	0.001821
-92.150000	0.002552	-3.071667	3.074219	0.037680 	0.001822
-92.100000	0.002589	-3.070000	3.072589	0.037694 	0.001822
-92.050000	0.002626	-3.068333	3.070959	0.037708 	0.001823
-92.000000	0.002664	-3.066667	3.069331	0.037721 	0.001823
-91.950000	0.002701	-3.065000	3.067701	0.037734 	0.001824
-91.900000	0.002739	-3.063333	3.066072	0.037747 	0.001824
-91.850000	0.002776	-3.061667	3.064443	0.037760 	0.001825
-91.800000	0.002813	-3.060000	3.062813	0.037772 	0.001825
-91.750000	0.002851	-3.058333	3.061184	0.037785 	0.001826
-91.700000	0.002889	-3.056667	3.059556	0.037797 	0.001826
-91.650000	0.002926	-3.055000	3.057926	0.037809 	0.001827
-91.600000	0.002964	-3.053333	3.056297	0.037820 	0.001827
-91.550000	0.003001	-3.051667	3.054668	0.037832 	0.001828
-91.500000	0.003039	-3.050000	3.053039	0.037843 	0.001828
-91.450000	0.003077	-3.048333	3.051410	0.037854 	0.001829
-91.400000	0.003115	-3.046667	3.049782	0.037864 	0.001829
-91.350000	0.003153	-3.045000	3.048153	0.037875 	0.001830
-91.300000	0.003191	-3.043333	3.046524	0.037885 	0.001830
-91.250000	0.003228	-3.041667	3.044895	0.037895 	0.001831
-91.200000	0.003266	-3.040000	3.043266	0.037905 	0.001831
-91.150000	0.003304	-3.038333	3.041637	0.037914 	0.001832
-91.100000	0.003342	-3.036667	3.040009	0.037923 	0.001832
-91.050000	0.003381	-3.035000	3.038381	0.037932 	0.001833
-91.000000	0.003419	-3.033333	3.036752	0.037941 	0.001833
-90.950000	0.003457	-3.031667	3.035124	0.037949 	0.001834
-90.900000	0.003495	-3.030000	3.033495	0.037958 	0.001834
-90.850000	0.003533	-3.028333	3.031866	0.037966 	0.001835
-90.800000	0.003572	-3.026667	3.030239	0.037973 	0.001835
-90.750000	0.003610	-3.025000	3.028610	0.037981 	0.001836
-90.700000	0.003648	-3.023333	3.026981	0.037988 	0.001836
-90.650000	0.003687	-3.021667	3.025354	0.037995 	0.001837
-90.600000	0.003725	-3.020000	3.023725	0.038002 	0.001837
-90.550000	0.003763	-3.018333	3.022096	0.038009 	0.001838
-90.500000	0.003802	-3.016667	3.020469	0.038015 	0.001838
-90.450000	0.003841	-3.015000	3.018841	0.038021 	0.001839
-90.400000	0.003879	-3.013333	3.017212	0.038027 	0.001839
-90.350000	0.003918	-3.011667	3.015585	0.038032 	0.001840
-90.300000	0.003956	-3.010000	3.013956	0.038038 	0.001840
-90.250000	0.003995	-3.008333	3.012328	0.038043 	0.001841
-90.200000	0.004034	-3.006667	3.010701	0.038047 	0.001841
-90.150000	0.004072	-3.005000	3.009072	0.038052 	0.001841
-90.100000	0.004111	-3.003333	3.007444	0.038056 	0.001842
-90.050000	0.004150	-3.001667	3.005817	0.038060 	0.001842
-90.000000	0.004189	-3.000000	3.004189	0.038064 	0.001843
-89.950000	0.004228	-2.998333	3.002561	0.038068 	0.001843
-89.900000	0.004267	-2.996667	3.000934	0.038071 	0.001844
-89.850000	0.004306	-2.995000	2.999306	0.038074 	0.001844
-89.800000	0.004345	-2.993333	2.997678	0.038077 	0.001845
-89.750000	0.004384	-2.991667	2.996051	0.038080 	0.001845
-89.700000	0.004423	-2.990000	2.994423	0.038082 	0.001846
-89.650000	0.004462	-2.988333	2.992795	0.038084 	0.001846
-89.600000	0.004501	-2.986667	2.991168	0.038086 	0.001847
-89.550000	0.004540	-2.985000	2.989540	0.038088 	0.001848
-89.500000	0.004579	-2.983333	2.987912	0.038089 	0.001848
-89.450000	0.004618	-2.981667	2.986285	0.038090 	0.001849
-89.400000	0.004657	-2.980000	2.984657	0.038091 	0.001849
-89.350000	0.004697	-2.978333	2.983030	0.038092 	0.001850
-89.300000	0.004736	-2.976667	2.981403	0.038092 	0.001850
-89.250000	0.004775	-2.975000	2.979775	0.038092 	0.001851
-89.200000	0.004814	-2.973333	2.978147	0.038092 	0.001851
-89.150000	0.004854	-2.971667	2.976521	0.038092 	0.001852
-89.100000	0.004893	-2.970000	2.974893	0.038091 	0.001852
-89.050000	0.004932	-2.968333	2.973265	0.038091 	0.001853
-89.000000	0.004972	-2.966667	2.971639	0.038090 	0.001853
-88.950000	0.005011	-2.965000	2.970011	0.038088 	0.001854
-88.900000	0.005051	-2.963333	2.968384	0.038087 	0.001854
-88.850000	0.005090	-2.961667	2.966757	0.038085 	0.001855
-88.800000	0.005130	-2.960000	2.965130	0.038083 	0.001855
-88.750000	0.005169	-2.958333	2.963502	0.038081 	0.001856
-88.700000	0.005208	-2.956667	2.961875	0.038078 	0.001856
-88.650000	0.005248	-2.955000	2.960248	0.038076 	0.001857
-88.600000	0.005287	-2.953333	2.958620	0.038073 	0.001857
-88.550000	0.005327	-2.951667	2.956994	0.038069 	0.001858
-88.500000	0.005367	-2.950000	2.955367	0.038066 	0.001858
-88.450000	0.005406	-2.948333	2.953739	0.038062 	0.001859
-88.400000	0.005446	-2.946667	2.952113	0.038058 	0.001859
-88.350000	0.005485	-2.945000	2.950485	0.038054 	0.001860
-88.300000	0.005525	-2.943333	2.948858	0.038050 	0.001860
-88.250000	0.005564	-2.941667	2.947231	0.038045 	0.001861
-88.200000	0.005604	-2.940000	2.945604	0.038041 	0.001861
-88.150000	0.005644	-2.938333	2.943977	0.038036 	0.001862
-88.100000	0.005683	-2.936667	2.942350	0.038030 	0.001862
-88.050000	0.005723	-2.935000	2.940723	0.038025 	0.001863
-88.000000	0.005763	-2.933333	2.939096	0.038019 	0.001863
-87.950000	0.005802	-2.931667	2.937469	0.038013 	0.001864
-87.900000	0.005842	-2.930000	2.935842	0.038007 	0.001864
-87.850000	0.005882	-2.928333	2.934215	0.038000 	0.001865
-87.800000	0.005921	-2.926667	2.932588	0.037994 	0.001865
-87.750000	0.005961	-2.925000	2.930961	0.037987 	0.001866
-87.700000	0.006001	-2.923333	2.929334	0.037980 	0.001866
-87.650000	0.006040	-2.921667	2.927707	0.037972 	0.001867
-87.600000	0.006080	-2.920000	2.926080	0.037965 	0.001867
-87.550000	0.006120	-2.918333	2.924453	0.037957 	0.001868
-87.500000	0.006159	-2.916667	2.922826	0.037949 	0.001868
-87.450000	0.006199	-2.915000	2.921199	0.037941 	0.001869
-87.400000	0.006239	-2.913333	2.919572	0.037932 	0.001870
-87.350000	0.006278	-2.911667	2.917945	0.037924 	0.001870
-87.300000	0.006318	-2.910000	2.916318	0.037915 	0.001871
-87.250000	0.006358	-2.908333	2.914691	0.037906 	0.001871
-87.200000	0.006397	-2.906667	2.913064	0.037896 	0.001872
-87.150000	0.006437	-2.905000	2.911437	0.037887 	0.001872
-87.100000	0.006477	-2.903333	2.909810	0.037877 	0.001873
-87.050000	0.006516	-2.901667	2.908183	0.037867 	0.001873
-87.000000	0.006556	-2.900000	2.906556	0.037857 	0.001874
-86.950000	0.006596	-2.898333	2.904929	0.037846 	0.001874
-86.900000	0.006635	-2.896667	2.903302	0.037835 	0.001875
-86.850000	0.006675	-2.895000	2.901675	0.037824 	0.001875
-86.800000	0.006715	-2.893333	2.900048	0.037813 	0.001876
-86.750000	0.006754	-2.891667	2.898421	0.037802 	0.001876
-86.700000	0.006794	-2.890000	2.896794	0.037790 	0.001877
-86.650000	0.006833	-2.888333	2.895166	0.037778 	0.001877
-86.600000	0.006873	-2.886667	2.893540	0.037766 	0.001878
-86.550000	0.006913	-2.885000	2.891913	0.037754 	0.001878
-86.500000	0.006952	-2.883333	2.890285	0.037741 	0.001879
-86.450000	0.006992	-2.881667	2.888659	0.037729 	0.001879
-86.400000	0.007031	-2.880000	2.887031	0.037716 	0.001880
-86.350000	0.007071	-2.878333	2.885404	0.037703 	0.001881
-86.300000	0.007111	-2.876667	2.883778	0.037689 	0.001881
-86.250000	0.007150	-2.875000	2.882150	0.037675 	0.001882
-86.200000	0.007190	-2.873333	2.880523	0.037662 	0.001882
-86.150000	0.007229	-2.871667	2.878896	0.037647 	0.001883
-86.100000	0.007269	-2.870000	2.877269	0.037633 	0.001883
-86.050000	0.007308	-2.868333	2.875641	0.037619 	0.001884
-86.000000	0.007348	-2.866667	2.874015	0.037604 	0.001884
-85.950000	0.007387	-2.865000	2.872387	0.037589 	0.001885
-85.900000	0.007427	-2.863333	2.870760	0.037574 	0.001885
-85.850000	0.007466	-2.861667	2.869133	0.037558 	0.001886
-85.800000	0.007506	-2.860000	2.867506	0.037542 	0.001886
-85.750000	0.007545	-2.858333	2.865878	0.037526 	0.001887
-85.700000	0.007584	-2.856667	2.864251	0.037510 	0.001887
-85.650000	0.007624	-2.855000	2.862624	0.037494 	0.001888
-85.600000	0.007663	-2.853333	2.860996	0.037477 	0.001889
-85.550000	0.007703	-2.851667	2.859370	0.037460 	0.001889
-85.500000	0.007742	-2.850000	2.857742	0.037443 	0.001890
-85.450000	0.007781	-2.848333	2.856114	0.037426 	0.001890
-85.400000	0.007821	-2.846667	2.854488	0.037408 	0.001891
-85.350000	0.007860	-2.845000	2.852860	0.037390 	0.001891
-85.300000	0.007899	-2.843333	2.851232	0.037372 	0.001892
-85.250000	0.007939	-2.841667	2.849606	0.037354 	0.001892
-85.200000	0.007978	-2.840000	2.847978	0.037336 	0.001893
-85.150000	0.008017	-2.838333	2.846350	0.037317 	0.001893
-85.100000	0.008056	-2.836667	2.844723	0.037298 	0.001894
-85.050000	0.008096	-2.835000	2.843096	0.037279 	0.001894
-85.000000	0.008135	-2.833333	2.841468	0.037259 	0.001895
-84.950000	0.008174	-2.831667	2.839841	0.037240 	0.001896
-84.900000	0.008213	-2.830000	2.838213	0.037220 	0.001896
-84.850000	0.008252	-2.828333	2.836585	0.037199 	0.001897
-84.800000	0.008292	-2.826667	2.834959	0.037179 	0.001897
-84.750000	0.008331	-2.825000	2.833331	0.037158 	0.001898
-84.700000	0.008370	-2.823333	2.831703	0.037137 	0.001898
-84.650000	0.008409	-2.821667	2.830076	0.037116 	0.001899
-84.600000	0.008448	-2.820000	2.828448	0.037095 	0.001899
-84.550000	0.008487	-2.818333	2.826820	0.037073 	0.001900
-84.500000	0.008526	-2.816667	2.825193	0.037051 	0.001900
-84.450000	0.008565	-2.815000	2.823565	0.037029 	0.001901
-84.400000	0.008604	-2.813333	2.821937	0.037007 	0.001902
-84.350000	0.008644	-2.811667	2.820311	0.036984 	0.001902
-84.300000	0.008683	-2.810000	2.818683	0.036961 	0.001903
-84.250000	0.008722	-2.808333	2.817055	0.036938 	0.001903
-84.200000	0.008761	-2.806667	2.815428	0.036915 	0.001904
-84.150000	0.008799	-2.805000	2.813799	0.036891 	0.001904
-84.100000	0.008838	-2.803333	2.812171	0.036868 	0.001905
-84.050000	0.008877	-2.801667	2.810544	0.036843 	0.001905
-84.000000	0.008916	-2.800000	2.808916	0.036819 	0.001906
-83.950000	0.008955	-2.798333	2.807288	0.036795 	0.001907
-83.900000	0.008994	-2.796667	2.805661	0.036770 	0.001907
-83.850000	0.009033	-2.795000	2.804033	0.036745 	0.001908
-83.800000	0.009072	-2.793333	2.802405	0.036719 	0.001908
-83.750000	0.009111	-2.791667	2.800778	0.036694 	0.001909
-83.700000	0.009149	-2.790000	2.799149	0.036668 	0.001909
-83.650000	0.009188	-2.788333	2.797521	0.036642 	0.001910
-83.600000	0.009227	-2.786667	2.795894	0.036615 	0.001910
-83.550000	0.009266	-2.785000	2.794266	0.036589 	0.001911
-83.500000	0.009304	-2.783333	2.792637	0.036562 	0.001912
-83.450000	0.009343	-2.781667	2.791010	0.036535 	0.001912
-83.400000	0.009382	-2.780000	2.789382	0.036508 	0.001913
-83.350000	0.009420	-2.778333	2.787753	0.036480 	0.001913
-83.300000	0.009459	-2.776667	2.786126	0.036452 	0.001914
-83.250000	0.009498	-2.775000	2.784498	0.036424 	0.001914
-83.200000	0.009536	-2.773333	2.782869	0.036396 	0.001915
-83.150000	0.009575	-2.771667	2.781242	0.036367 	0.001915
-83.100000	0.009613	-2.770000	2.779613	0.036338 	0.001916
-83.050000	0.009652	-2.768333	2.777985	0.036309 	0.001917
-83.000000	0.009690	-2.766667	2.776357	0.036280 	0.001917
-82.950000	0.009729	-2.765000	2.774729	0.036250 	0.001918
-82.900000	0.009767	-2.763333	2.773100	0.036220 	0.001918
-82.850000	0.009805	-2.761667	2.771472	0.036190 	0.001919
-82.800000	0.009844	-2.760000	2.769844	0.036160 	0.001919
-82.750000	0.009882	-2.758333	2.768215	0.036129 	0.001920
-82.700000	0.009921	-2.756667	2.766588	0.036099 	0.001921
-82.650000	0.009959	-2.755000	2.764959	0.036067 	0.001921
-82.600000	0.009997	-2.753333	2.763330	0.036036 	0.001922
-82.550000	0.010035	-2.751667	2.761702	0.036004 	0.001922
-82.500000	0.010074	-2.750000	2.760074	0.035973 	0.001923
-82.450000	0.010112	-2.748333	2.758445	0.035941 	0.001923
-82.400000	0.010150	-2.746667	2.756817	0.035908 	0.001924
-82.350000	0.010188	-2.745000	2.755188	0.035876 	0.001924
-82.300000	0.010226	-2.743333	2.753559	0.035843 	0.001925
-82.250000	0.010264	-2.741667	2.751931	0.035810 	0.001926
-82.200000	0.010302	-2.740000	2.750302	0.035776 	0.001926
-82.150000	0.010340	-2.738333	2.748673	0.035743 	0.001927
-82.100000	0.010378	-2.736667	2.747045	0.035709 	0.001927
-82.050000	0.010416	-2.735000	2.745416	0.035675 	0.001928
-82.000000	0.010454	-2.733333	2.743787	0.035640 	0.001928
-81.950000	0.010492	-2.731667	2.742159	0.035606 	0.001929
-81.900000	0.010529	-2.730000	2.740529	0.035571 	0.001930
-81.850000	0.010567	-2.728333	2.738900	0.035536 	0.001930
-81.800000	0.010605	-2.726667	2.737272	0.035501 	0.001931
-81.750000	0.010643	-2.725000	2.735643	0.035465 	0.001931
-81.700000	0.010680	-2.723333	2.734013	0.035429 	0.001932
-81.650000	0.010718	-2.721667	2.732385	0.035393 	0.001932
-81.600000	0.010755	-2.720000	2.730755	0.035357 	0.001933
-81.550000	0.010793	-2.718333	2.729126	0.035320 	0.001934
-81.500000	0.010830	-2.716667	2.727497	0.035283 	0.001934
-81.450000	0.010868	-2.715000	2.725868	0.035246 	0.001935
-81.400000	0.010905	-2.713333	2.724238	0.035209 	0.001935
-81.350000	0.010943	-2.711667	2.722610	0.035172 	0.001936
-81.300000	0.010980	-2.710000	2.720980	0.035134 	0.001937
-81.250000	0.011017	-2.708333	2.719350	0.035096 	0.001937
-81.200000	0.011054	-2.706667	2.717721	0.035058 	0.001938
-81.150000	0.011092	-2.705000	2.716092	0.035019 	0.001938
-81.100000	0.011129	-2.703333	2.714462	0.034980 	0.001939
-81.050000	0.011166	-2.701667	2.712833	0.034941 	0.001939
-81.000000	0.011203	-2.700000	2.711203	0.034902 	0.001940
-80.950000	0.011240	-2.698333	2.709573	0.034863 	0.001941
-80.900000	0.011277	-2.696667	2.707944	0.034823 	0.001941
-80.850000	0.011314	-2.695000	2.706314	0.034783 	0.001942
-80.800000	0.011350	-2.693333	2.704683	0.034743 	0.001942
-80.750000	0.011387	-2.691667	2.703054	0.034703 	0.001943
-80.700000	0.011424	-2.690000	2.701424	0.034662 	0.001944
-80.650000	0.011461	-2.688333	2.699794	0.034621 	0.001944
-80.600000	0.011497	-2.686667	2.698164	0.034580 	0.001945
-80.550000	0.011534	-2.685000	2.696534	0.034539 	0.001945
-80.500000	0.011570	-2.683333	2.694903	0.034497 	0.001946
-80.450000	0.011607	-2.681667	2.693274	0.034455 	0.001946
-80.400000	0.011643	-2.680000	2.691643	0.034413 	0.001947
-80.350000	0.011679	-2.678333	2.690012	0.034371 	0.001948
-80.300000	0.011716	-2.676667	2.688383	0.034328 	0.001948
-80.250000	0.011752	-2.675000	2.686752	0.034285 	0.001949
-80.200000	0.011788	-2.673333	2.685121	0.034242 	0.001949
-80.150000	0.011824	-2.671667	2.683491	0.034199 	0.001950
-80.100000	0.011860	-2.670000	2.681860	0.034156 	0.001951
-80.050000	0.011896	-2.668333	2.680229	0.034112 	0.001951
-80.000000	0.011932	-2.666667	2.678599	0.034068 	0.001952
-79.950000	0.011968	-2.665000	2.676968	0.034024 	0.001952
-79.900000	0.012004	-2.663333	2.675337	0.033979 	0.001953
-79.850000	0.012040	-2.661667	2.673707	0.033935 	0.001954
-79.800000	0.012075	-2.660000	2.672075	0.033890 	0.001954
-79.750000	0.012111	-2.658333	2.670444	0.033845 	0.001955
-79.700000	0.012147	-2.656667	2.668814	0.033799 	0.001955
-79.650000	0.012182	-2.655000	2.667182	0.033754 	0.001956
-79.600000	0.012217	-2.653333	2.665550	0.033708 	0.001957
-79.550000	0.012253	-2.651667	2.663920	0.033662 	0.001957
-79.500000	0.012288	-2.650000	2.662288	0.033616 	0.001958
-79.450000	0.012323	-2.648333	2.660656	0.033569 	0.001958
-79.400000	0.012359	-2.646667	2.659026	0.033522 	0.001959
-79.350000	0.012394	-2.645000	2.657394	0.033475 	0.001960
-79.300000	0.012429	-2.643333	2.655762	0.033428 	0.001960
-79.250000	0.012464	-2.641667	2.654131	0.033381 	0.001961
-79.200000	0.012499	-2.640000	2.652499	0.033333 	0.001961
-79.150000	0.012534	-2.638333	2.650867	0.033285 	0.001962
-79.100000	0.012568	-2.636667	2.649235	0.033237 	0.001963
-79.050000	0.012603	-2.635000	2.647603	0.033188 	0.001963
-79.000000	0.012638	-2.633333	2.645971	0.033140 	0.001964
-78.950000	0.012672	-2.631667	2.644339	0.033091 	0.001964
-78.900000	0.012707	-2.630000	2.642707	0.033042 	0.001965
-78.850000	0.012741	-2.628333	2.641074	0.032992 	0.001966
-78.800000	0.012776	-2.626667	2.639443	0.032943 	0.001966
-78.750000	0.012810	-2.625000	2.637810	0.032893 	0.001967
-78.700000	0.012844	-2.623333	2.636177	0.032843 	0.001967
-78.650000	0.012878	-2.621667	2.634545	0.032792 	0.001968
-78.600000	0.012912	-2.620000	2.632912	0.032742 	0.001969
-78.550000	0.012946	-2.618333	2.631279	0.032691 	0.001969
-78.500000	0.012980	-2.616667	2.629647	0.032640 	0.001970
-78.450000	0.013014	-2.615000	2.628014	0.032589 	0.001970
-78.400000	0.013048	-2.613333	2.626381	0.032537 	0.001971
-78.350000	0.013082	-2.611667	2.624749	0.032486 	0.001972
-78.300000	0.013116	-2.610000	2.623116	0.032434 	0.001972
-78.250000	0.013149	-2.608333	2.621482	0.032381 	0.001973
-78.200000	0.013183	-2.606667	2.619850	0.032329 	0.001974
-78.150000	0.013216	-2.605000	2.618216	0.032276 	0.001974
-78.100000	0.013250	-2.603333	2.616583	0.032223 	0.001975
-78.050000	0.013283	-2.601667	2.614950	0.032170 	0.001975
-78.000000	0.013316	-2.600000	2.613316	0.032117 	0.001976
-77.950000	0.013349	-2.598333	2.611682	0.032063 	0.001977
-77.900000	0.013382	-2.596667	2.610049	0.032009 	0.001977
-77.850000	0.013415	-2.595000	2.608415	0.031955 	0.001978
-77.800000	0.013448	-2.593333	2.606781	0.031900 	0.001978
-77.750000	0.013481	-2.591667	2.605148	0.031846 	0.001979
-77.700000	0.013514	-2.590000	2.603514	0.031791 	0.001980
-77.650000	0.013547	-2.588333	2.601880	0.031736 	0.001980
-77.600000	0.013579	-2.586667	2.600246	0.031680 	0.001981
-77.550000	0.013612	-2.585000	2.598612	0.031625 	0.001982
-77.500000	0.013645	-2.583333	2.596978	0.031569 	0.001982
-77.450000	0.013677	-2.581667	2.595344	0.031513 	0.001983
-77.400000	0.013709	-2.580000	2.593709	0.031456 	0.001983
-77.350000	0.013742	-2.578333	2.592075	0.031400 	0.001984
-77.300000	0.013774	-2.576667	2.590441	0.031343 	0.001985
-77.250000	0.013806	-2.575000	2.588806	0.031286 	0.001985
-77.200000	0.013838	-2.573333	2.587171	0.031228 	0.001986
-77.150000	0.013870	-2.571667	2.585537	0.031171 	0.001987
-77.100000	0.013902	-2.570000	2.583902	0.031113 	0.001987
-77.050000	0.013934	-2.568333	2.582267	0.031055 	0.001988
-77.000000	0.013966	-2.566667	2.580633	0.030996 	0.001988
-76.950000	0.013997	-2.565000	2.578997	0.030938 	0.001989
-76.900000	0.014029	-2.563333	2.577362	0.030879 	0.001990
-76.850000	0.014060	-2.561667	2.575727	0.030820 	0.001990
-76.800000	0.014092	-2.560000	2.574092	0.030760 	0.001991
-76.750000	0.014123	-2.558333	2.572456	0.030701 	0.001992
-76.700000	0.014154	-2.556667	2.570821	0.030641 	0.001992
-76.650000	0.014186	-2.555000	2.569186	0.030581 	0.001993
-76.600000	0.014217	-2.553333	2.567550	0.030520 	0.001994
-76.550000	0.014248	-2.551667	2.565915	0.030460 	0.001994
-76.500000	0.014279	-2.550000	2.564279	0.030399 	0.001995
-76.450000	0.014310	-2.548333	2.562643	0.030338 	0.001995
-76.400000	0.014340	-2.546667	2.561007	0.030276 	0.001996
-76.350000	0.014371	-2.545000	2.559371	0.030215 	0.001997
-76.300000	0.014402	-2.543333	2.557735	0.030153 	0.001997
-76.250000	0.014432	-2.541667	2.556099	0.030091 	0.001998
-76.200000	0.014463	-2.540000	2.554463	0.030028 	0.001999
-76.150000	0.014493	-2.538333	2.552826	0.029966 	0.001999
-76.100000	0.014524	-2.536667	2.551191	0.029903 	0.002000
-76.050000	0.014554	-2.535000	2.549554	0.029840 	0.002001
-76.000000	0.014584	-2.533333	2.547917	0.029776 	0.002001
-75.950000	0.014614	-2.531667	2.546281	0.029712 	0.002002
-75.900000	0.014644	-2.530000	2.544644	0.029648 	0.002003
-75.850000	0.014674	-2.528333	2.543007	0.029584 	0.002003
-75.800000	0.014704	-2.526667	2.541371	0.029520 	0.002004
-75.750000	0.014734	-2.525000	2.539734	0.029455 	0.002004
-75.700000	0.014763	-2.523333	2.538096	0.029390 	0.002005
-75.650000	0.014793	-2.521667	2.536460	0.029325 	0.002006
-75.600000	0.014822	-2.520000	2.534822	0.029259 	0.002006
-75.550000	0.014852	-2.518333	2.533185	0.029194 	0.002007
-75.500000	0.014881	-2.516667	2.531548	0.029128 	0.002008
-75.450000	0.014910	-2.515000	2.529910	0.029061 	0.002008
-75.400000	0.014939	-2.513333	2.528272	0.028995 	0.002009
-75.350000	0.014969	-2.511667	2.526636	0.028928 	0.002010
-75.300000	0.014998	-2.510000	2.524998	0.028861 	0.002010
-75.250000	0.015026	-2.508333	2.523359	0.028794 	0.002011
-75.200000	0.015055	-2.506667	2.521722	0.028726 	0.002012
-75.150000	0.015084	-2.505000	2.520084	0.028658 	0.002012
-75.100000	0.015113	-2.503333	2.518446	0.028590 	0.002013
-75.050000	0.015141	-2.501667	2.516808	0.028522 	0.002014
-75.000000	0.015170	-2.500000	2.515170	0.028453 	0.002014
-74.950000	0.015198	-2.498333	2.513531	0.028384 	0.002015
-74.900000	0.015226	-2.496667	2.511893	0.028315 	0.002016
-74.850000	0.015255	-2.495000	2.510255	0.028246 	0.002016
-74.800000	0.015283	-2.493333	2.508616	0.028176 	0.002017
-74.750000	0.015311	-2.491667	2.506978	0.028106 	0.002017
-74.700000	0.015339	-2.490000	2.505339	0.028036 	0.002018
-74.650000	0.015366	-2.488333	2.503699	0.027965 	0.002019
-74.600000	0.015394	-2.486667	2.502061	0.027894 	0.002019
-74.550000	0.015422	-2.485000	2.500422	0.027823 	0.002020
-74.500000	0.015449	-2.483333	2.498782	0.027752 	0.002021
-74.450000	0.015477	-2.481667	2.497144	0.027681 	0.002021
-74.400000	0.015504	-2.480000	2.495504	0.027609 	0.002022
-74.350000	0.015532	-2.478333	2.493865	0.027537 	0.002023