VARIABLES = X,Ksi,B,H,U,tau 
ZONE T="Time 40.000000", I=2200, DATAPACKING=POINT
-100.000000	0.007609	-3.333333	3.340942	0.029001 	0.001748
-99.950000	0.004639	-3.331667	3.336306	0.034062 	0.001749
-99.900000	0.005869	-3.330000	3.335869	0.031926 	0.001749
-99.850000	0.005284	-3.328333	3.333617	0.032901 	0.001750
-99.800000	0.005483	-3.326667	3.332150	0.032531 	0.001750
-99.750000	0.005344	-3.325000	3.330344	0.032743 	0.001750
-99.700000	0.005350	-3.323333	3.328683	0.032702 	0.001751
-99.650000	0.005294	-3.321667	3.326961	0.032771 	0.001751
-99.600000	0.005265	-3.320000	3.325265	0.032792 	0.001752
-99.550000	0.005223	-3.318333	3.323556	0.032834 	0.001752
-99.500000	0.005187	-3.316667	3.321854	0.032866 	0.001753
-99.450000	0.005149	-3.315000	3.320149	0.032902 	0.001753
-99.400000	0.005111	-3.313333	3.318444	0.032937 	0.001754
-99.350000	0.005073	-3.311667	3.316740	0.032972 	0.001754
-99.300000	0.005036	-3.310000	3.315036	0.033006 	0.001754
-99.250000	0.004998	-3.308333	3.313331	0.033041 	0.001755
-99.200000	0.004960	-3.306667	3.311627	0.033075 	0.001755
-99.150000	0.004922	-3.305000	3.309922	0.033110 	0.001756
-99.100000	0.004884	-3.303333	3.308217	0.033144 	0.001756
-99.050000	0.004846	-3.301667	3.306513	0.033178 	0.001757
-99.000000	0.004808	-3.300000	3.304808	0.033212 	0.001757
-98.950000	0.004770	-3.298333	3.303103	0.033245 	0.001758
-98.900000	0.004732	-3.296667	3.301399	0.033279 	0.001758
-98.850000	0.004694	-3.295000	3.299694	0.033312 	0.001759
-98.800000	0.004655	-3.293333	3.297988	0.033345 	0.001759
-98.750000	0.004617	-3.291667	3.296284	0.033379 	0.001759
-98.700000	0.004579	-3.290000	3.294579	0.033412 	0.001760
-98.650000	0.004540	-3.288333	3.292873	0.033444 	0.001760
-98.600000	0.004502	-3.286667	3.291169	0.033477 	0.001761
-98.550000	0.004464	-3.285000	3.289464	0.033510 	0.001761
-98.500000	0.004425	-3.283333	3.287758	0.033542 	0.001762
-98.450000	0.004387	-3.281667	3.286054	0.033574 	0.001762
-98.400000	0.004348	-3.280000	3.284348	0.033607 	0.001763
-98.350000	0.004310	-3.278333	3.282643	0.033639 	0.001763
-98.300000	0.004271	-3.276667	3.280938	0.033670 	0.001764
-98.250000	0.004232	-3.275000	3.279232	0.033702 	0.001764
-98.200000	0.004194	-3.273333	3.277527	0.033734 	0.001764
-98.150000	0.004155	-3.271667	3.275822	0.033765 	0.001765
-98.100000	0.004116	-3.270000	3.274116	0.033796 	0.001765
-98.050000	0.004077	-3.268333	3.272410	0.033828 	0.001766
-98.000000	0.004039	-3.266667	3.270706	0.033858 	0.001766
-97.950000	0.004000	-3.265000	3.269000	0.033889 	0.001767
-97.900000	0.003961	-3.263333	3.267294	0.033920 	0.001767
-97.850000	0.003922	-3.261667	3.265589	0.033951 	0.001768
-97.800000	0.003883	-3.260000	3.263883	0.033981 	0.001768
-97.750000	0.003844	-3.258333	3.262177	0.034011 	0.001769
-97.700000	0.003805	-3.256667	3.260472	0.034041 	0.001769
-97.650000	0.003766	-3.255000	3.258766	0.034071 	0.001770
-97.600000	0.003727	-3.253333	3.257060	0.034101 	0.001770
-97.550000	0.003688	-3.251667	3.255355	0.034131 	0.001770
-97.500000	0.003648	-3.250000	3.253648	0.034160 	0.001771
-97.450000	0.003609	-3.248333	3.251942	0.034189 	0.001771
-97.400000	0.003570	-3.246667	3.250237	0.034219 	0.001772
-97.350000	0.003531	-3.245000	3.248531	0.034248 	0.001772
-97.300000	0.003491	-3.243333	3.246824	0.034276 	0.001773
-97.250000	0.003452	-3.241667	3.245119	0.034305 	0.001773
-97.200000	0.003413	-3.240000	3.243413	0.034334 	0.001774
-97.150000	0.003373	-3.238333	3.241706	0.034362 	0.001774
-97.100000	0.003334	-3.236667	3.240001	0.034390 	0.001775
-97.050000	0.003294	-3.235000	3.238294	0.034419 	0.001775
-97.000000	0.003255	-3.233333	3.236588	0.034446 	0.001776
-96.950000	0.003215	-3.231667	3.234882	0.034474 	0.001776
-96.900000	0.003175	-3.230000	3.233175	0.034502 	0.001777
-96.850000	0.003136	-3.228333	3.231469	0.034529 	0.001777
-96.800000	0.003096	-3.226667	3.229763	0.034557 	0.001777
-96.750000	0.003056	-3.225000	3.228056	0.034584 	0.001778
-96.700000	0.003017	-3.223333	3.226350	0.034611 	0.001778
-96.650000	0.002977	-3.221667	3.224644	0.034638 	0.001779
-96.600000	0.002937	-3.220000	3.222937	0.034664 	0.001779
-96.550000	0.002897	-3.218333	3.221230	0.034691 	0.001780
-96.500000	0.002857	-3.216667	3.219524	0.034717 	0.001780
-96.450000	0.002817	-3.215000	3.217817	0.034743 	0.001781
-96.400000	0.002777	-3.213333	3.216110	0.034770 	0.001781
-96.350000	0.002738	-3.211667	3.214405	0.034795 	0.001782
-96.300000	0.002698	-3.210000	3.212698	0.034821 	0.001782
-96.250000	0.002657	-3.208333	3.210990	0.034847 	0.001783
-96.200000	0.002617	-3.206667	3.209284	0.034872 	0.001783
-96.150000	0.002577	-3.205000	3.207577	0.034897 	0.001784
-96.100000	0.002537	-3.203333	3.205870	0.034922 	0.001784
-96.050000	0.002497	-3.201667	3.204164	0.034947 	0.001785
-96.000000	0.002457	-3.200000	3.202457	0.034972 	0.001785
-95.950000	0.002417	-3.198333	3.200750	0.034997 	0.001786
-95.900000	0.002376	-3.196667	3.199043	0.035021 	0.001786
-95.850000	0.002336	-3.195000	3.197336	0.035045 	0.001786
-95.800000	0.002296	-3.193333	3.195629	0.035070 	0.001787
-95.750000	0.002255	-3.191667	3.193922	0.035093 	0.001787
-95.700000	0.002215	-3.190000	3.192215	0.035117 	0.001788
-95.650000	0.002175	-3.188333	3.190508	0.035141 	0.001788
-95.600000	0.002134	-3.186667	3.188801	0.035164 	0.001789
-95.550000	0.002094	-3.185000	3.187094	0.035188 	0.001789
-95.500000	0.002053	-3.183333	3.185386	0.035211 	0.001790
-95.450000	0.002013	-3.181667	3.183680	0.035234 	0.001790
-95.400000	0.001972	-3.180000	3.181972	0.035256 	0.001791
-95.350000	0.001932	-3.178333	3.180265	0.035279 	0.001791
-95.300000	0.001891	-3.176667	3.178558	0.035301 	0.001792
-95.250000	0.001850	-3.175000	3.176850	0.035324 	0.001792
-95.200000	0.001810	-3.173333	3.175143	0.035346 	0.001793
-95.150000	0.001769	-3.171667	3.173436	0.035368 	0.001793
-95.100000	0.001728	-3.170000	3.171728	0.035390 	0.001794
-95.050000	0.001688	-3.168333	3.170021	0.035411 	0.001794
-95.000000	0.001647	-3.166667	3.168314	0.035432 	0.001795
-94.950000	0.001606	-3.165000	3.166606	0.035454 	0.001795
-94.900000	0.001565	-3.163333	3.164898	0.035475 	0.001796
-94.850000	0.001524	-3.161667	3.163191	0.035496 	0.001796
-94.800000	0.001483	-3.160000	3.161483	0.035516 	0.001797
-94.750000	0.001442	-3.158333	3.159775	0.035537 	0.001797
-94.700000	0.001402	-3.156667	3.158069	0.035557 	0.001798
-94.650000	0.001361	-3.155000	3.156361	0.035578 	0.001798
-94.600000	0.001320	-3.153333	3.154653	0.035598 	0.001799
-94.550000	0.001279	-3.151667	3.152946	0.035618 	0.001799
-94.500000	0.001238	-3.150000	3.151238	0.035637 	0.001799
-94.450000	0.001196	-3.148333	3.149529	0.035657 	0.001800
-94.400000	0.001155	-3.146667	3.147822	0.035676 	0.001800
-94.350000	0.001114	-3.145000	3.146114	0.035695 	0.001801
-94.300000	0.001073	-3.143333	3.144406	0.035714 	0.001801
-94.250000	0.001032	-3.141667	3.142699	0.035733 	0.001802
-94.200000	0.000991	-3.140000	3.140991	0.035752 	0.001802
-94.150000	0.000949	-3.138333	3.139282	0.035770 	0.001803
-94.100000	0.000908	-3.136667	3.137575	0.035788 	0.001803
-94.050000	0.000867	-3.135000	3.135867	0.035806 	0.001804
-94.000000	0.000826	-3.133333	3.134159	0.035824 	0.001804
-93.950000	0.000784	-3.131667	3.132451	0.035842 	0.001805
-93.900000	0.000743	-3.130000	3.130743	0.035860 	0.001805
-93.850000	0.000702	-3.128333	3.129035	0.035877 	0.001806
-93.800000	0.000660	-3.126667	3.127327	0.035894 	0.001806
-93.750000	0.000619	-3.125000	3.125619	0.035911 	0.001807
-93.700000	0.000577	-3.123333	3.123910	0.035928 	0.001807
-93.650000	0.000536	-3.121667	3.122203	0.035945 	0.001808
-93.600000	0.000494	-3.120000	3.120494	0.035961 	0.001808
-93.550000	0.000453	-3.118333	3.118786	0.035977 	0.001809
-93.500000	0.000411	-3.116667	3.117078	0.035994 	0.001809
-93.450000	0.000370	-3.115000	3.115370	0.036009 	0.001810
-93.400000	0.000328	-3.113333	3.113661	0.036025 	0.001810
-93.350000	0.000287	-3.111667	3.111954	0.036041 	0.001811
-93.300000	0.000245	-3.110000	3.110245	0.036056 	0.001811
-93.250000	0.000203	-3.108333	3.108536	0.036071 	0.001812
-93.200000	0.000162	-3.106667	3.106829	0.036086 	0.001812
-93.150000	0.000120	-3.105000	3.105120	0.036101 	0.001813
-93.100000	0.000078	-3.103333	3.103411	0.036116 	0.001813
-93.050000	0.000037	-3.101667	3.101704	0.036130 	0.001814
-93.000000	-0.000005	-3.100000	3.099995	0.036144 	0.001814
-92.950000	-0.000047	-3.098333	3.098286	0.036159 	0.001815
-92.900000	-0.000089	-3.096667	3.096578	0.036172 	0.001815
-92.850000	-0.000131	-3.095000	3.094869	0.036186 	0.001816
-92.800000	-0.000172	-3.093333	3.093161	0.036200 	0.001816
-92.750000	-0.000214	-3.091667	3.091453	0.036213 	0.001817
-92.700000	-0.000256	-3.090000	3.089744	0.036226 	0.001817
-92.650000	-0.000298	-3.088333	3.088035	0.036239 	0.001818
-92.600000	-0.000340	-3.086667	3.086327	0.036252 	0.001818
-92.550000	-0.000382	-3.085000	3.084618	0.036264 	0.001819
-92.500000	-0.000424	-3.083333	3.082909	0.036277 	0.001819
-92.450000	-0.000466	-3.081667	3.081201	0.036289 	0.001820
-92.400000	-0.000508	-3.080000	3.079492	0.036301 	0.001820
-92.350000	-0.000550	-3.078333	3.077783	0.036313 	0.001821
-92.300000	-0.000592	-3.076667	3.076075	0.036324 	0.001821
-92.250000	-0.000634	-3.075000	3.074366	0.036336 	0.001822
-92.200000	-0.000676	-3.073333	3.072657	0.036347 	0.001822
-92.150000	-0.000718	-3.071667	3.070949	0.036358 	0.001823
-92.100000	-0.000760	-3.070000	3.069240	0.036369 	0.001823
-92.050000	-0.000802	-3.068333	3.067531	0.036379 	0.001824
-92.000000	-0.000844	-3.066667	3.065823	0.036390 	0.001824
-91.950000	-0.000886	-3.065000	3.064114	0.036400 	0.001825
-91.900000	-0.000929	-3.063333	3.062404	0.036410 	0.001825
-91.850000	-0.000971	-3.061667	3.060696	0.036420 	0.001826
-91.800000	-0.001013	-3.060000	3.058987	0.036430 	0.001826
-91.750000	-0.001055	-3.058333	3.057278	0.036439 	0.001827
-91.700000	-0.001097	-3.056667	3.055570	0.036448 	0.001827
-91.650000	-0.001140	-3.055000	3.053860	0.036457 	0.001828
-91.600000	-0.001182	-3.053333	3.052151	0.036466 	0.001828
-91.550000	-0.001224	-3.051667	3.050443	0.036475 	0.001829
-91.500000	-0.001266	-3.050000	3.048734	0.036484 	0.001829
-91.450000	-0.001309	-3.048333	3.047024	0.036492 	0.001830
-91.400000	-0.001351	-3.046667	3.045316	0.036500 	0.001831
-91.350000	-0.001393	-3.045000	3.043607	0.036508 	0.001831
-91.300000	-0.001436	-3.043333	3.041897	0.036516 	0.001832
-91.250000	-0.001478	-3.041667	3.040189	0.036523 	0.001832
-91.200000	-0.001521	-3.040000	3.038479	0.036530 	0.001833
-91.150000	-0.001563	-3.038333	3.036770	0.036537 	0.001833
-91.100000	-0.001605	-3.036667	3.035062	0.036544 	0.001834
-91.050000	-0.001648	-3.035000	3.033352	0.036551 	0.001834
-91.000000	-0.001690	-3.033333	3.031643	0.036557 	0.001835
-90.950000	-0.001733	-3.031667	3.029934	0.036564 	0.001835
-90.900000	-0.001775	-3.030000	3.028225	0.036570 	0.001836
-90.850000	-0.001818	-3.028333	3.026515	0.036576 	0.001836
-90.800000	-0.001860	-3.026667	3.024807	0.036581 	0.001837
-90.750000	-0.001902	-3.025000	3.023098	0.036587 	0.001837
-90.700000	-0.001945	-3.023333	3.021388	0.036592 	0.001838
-90.650000	-0.001987	-3.021667	3.019680	0.036597 	0.001838
-90.600000	-0.002030	-3.020000	3.017970	0.036602 	0.001839
-90.550000	-0.002073	-3.018333	3.016260	0.036607 	0.001839
-90.500000	-0.002115	-3.016667	3.014552	0.036611 	0.001840
-90.450000	-0.002158	-3.015000	3.012842	0.036616 	0.001840
-90.400000	-0.002200	-3.013333	3.011133	0.036620 	0.001841
-90.350000	-0.002243	-3.011667	3.009424	0.036623 	0.001841
-90.300000	-0.002285	-3.010000	3.007715	0.036627 	0.001842
-90.250000	-0.002328	-3.008333	3.006005	0.036630 	0.001842
-90.200000	-0.002371	-3.006667	3.004296	0.036634 	0.001843
-90.150000	-0.002413	-3.005000	3.002587	0.036637 	0.001843
-90.100000	-0.002456	-3.003333	3.000877	0.036640 	0.001844
-90.050000	-0.002499	-3.001667	2.999168	0.036642 	0.001845
-90.000000	-0.002541	-3.000000	2.997459	0.036644 	0.001845
-89.950000	-0.002584	-2.998333	2.995749	0.036647 	0.001846
-89.900000	-0.002626	-2.996667	2.994041	0.036649 	0.001846
-89.850000	-0.002669	-2.995000	2.992331	0.036650 	0.001847
-89.800000	-0.002712	-2.993333	2.990621	0.036652 	0.001847
-89.750000	-0.002755	-2.991667	2.988912	0.036653 	0.001848
-89.700000	-0.002797	-2.990000	2.987203	0.036654 	0.001848
-89.650000	-0.002840	-2.988333	2.985493	0.036655 	0.001849
-89.600000	-0.002883	-2.986667	2.983784	0.036656 	0.001849
-89.550000	-0.002925	-2.985000	2.982075	0.036657 	0.001850
-89.500000	-0.002968	-2.983333	2.980365	0.036657 	0.001850
-89.450000	-0.003011	-2.981667	2.978656	0.036657 	0.001851
-89.400000	-0.003054	-2.980000	2.976946	0.036657 	0.001851
-89.350000	-0.003096	-2.978333	2.975237	0.036656 	0.001852
-89.300000	-0.003139	-2.976667	2.973528	0.036656 	0.001852
-89.250000	-0.003182	-2.975000	2.971818	0.036655 	0.001853
-89.200000	-0.003225	-2.973333	2.970108	0.036654 	0.001854
-89.150000	-0.003267	-2.971667	2.968400	0.036653 	0.001854
-89.100000	-0.003310	-2.970000	2.966690	0.036651 	0.001855
-89.050000	-0.003353	-2.968333	2.964980	0.036650 	0.001855
-89.000000	-0.003396	-2.966667	2.963271	0.036648 	0.001856
-88.950000	-0.003438	-2.965000	2.961562	0.036646 	0.001856
-88.900000	-0.003481	-2.963333	2.959852	0.036644 	0.001857
-88.850000	-0.003524	-2.961667	2.958143	0.036641 	0.001857
-88.800000	-0.003567	-2.960000	2.956433	0.036638 	0.001858
-88.750000	-0.003610	-2.958333	2.954723	0.036636 	0.001858
-88.700000	-0.003652	-2.956667	2.953015	0.036632 	0.001859
-88.650000	-0.003695	-2.955000	2.951305	0.036629 	0.001859
-88.600000	-0.003738	-2.953333	2.949595	0.036625 	0.001860
-88.550000	-0.003781	-2.951667	2.947886	0.036622 	0.001861
-88.500000	-0.003824	-2.950000	2.946176	0.036618 	0.001861
-88.450000	-0.003867	-2.948333	2.944466	0.036613 	0.001862
-88.400000	-0.003909	-2.946667	2.942758	0.036609 	0.001862
-88.350000	-0.003952	-2.945000	2.941048	0.036604 	0.001863
-88.300000	-0.003995	-2.943333	2.939338	0.036599 	0.001863
-88.250000	-0.004038	-2.941667	2.937629	0.036594 	0.001864
-88.200000	-0.004081	-2.940000	2.935919	0.036589 	0.001864
-88.150000	-0.004124	-2.938333	2.934209	0.036583 	0.001865
-88.100000	-0.004166	-2.936667	2.932501	0.036577 	0.001865
-88.050000	-0.004209	-2.935000	2.930791	0.036571 	0.001866
-88.000000	-0.004252	-2.933333	2.929081	0.036565 	0.001866
-87.950000	-0.004295	-2.931667	2.927372	0.036559 	0.001867
-87.900000	-0.004338	-2.930000	2.925662	0.036552 	0.001868
-87.850000	-0.004381	-2.928333	2.923952	0.036545 	0.001868
-87.800000	-0.004423	-2.926667	2.922244	0.036538 	0.001869
-87.750000	-0.004466	-2.925000	2.920534	0.036531 	0.001869
-87.700000	-0.004509	-2.923333	2.918824	0.036523 	0.001870
-87.650000	-0.004552	-2.921667	2.917115	0.036515 	0.001870
-87.600000	-0.004595	-2.920000	2.915405	0.036507 	0.001871
-87.550000	-0.004638	-2.918333	2.913695	0.036499 	0.001871
-87.500000	-0.004680	-2.916667	2.911987	0.036491 	0.001872
-87.450000	-0.004723	-2.915000	2.910277	0.036482 	0.001872
-87.400000	-0.004766	-2.913333	2.908567	0.036473 	0.001873
-87.350000	-0.004809	-2.911667	2.906858	0.036464 	0.001874
-87.300000	-0.004852	-2.910000	2.905148	0.036455 	0.001874
-87.250000	-0.004894	-2.908333	2.903439	0.036445 	0.001875
-87.200000	-0.004937	-2.906667	2.901730	0.036435 	0.001875
-87.150000	-0.004980	-2.905000	2.900020	0.036425 	0.001876
-87.100000	-0.005023	-2.903333	2.898310	0.036415 	0.001876
-87.050000	-0.005066	-2.901667	2.896601	0.036404 	0.001877
-87.000000	-0.005108	-2.900000	2.894892	0.036394 	0.001877
-86.950000	-0.005151	-2.898333	2.893182	0.036383 	0.001878
-86.900000	-0.005194	-2.896667	2.891473	0.036371 	0.001879
-86.850000	-0.005237	-2.895000	2.889763	0.036360 	0.001879
-86.800000	-0.005280	-2.893333	2.888053	0.036348 	0.001880
-86.750000	-0.005322	-2.891667	2.886345	0.036336 	0.001880
-86.700000	-0.005365	-2.890000	2.884635	0.036324 	0.001881
-86.650000	-0.005408	-2.888333	2.882925	0.036312 	0.001881
-86.600000	-0.005451	-2.886667	2.881216	0.036299 	0.001882
-86.550000	-0.005493	-2.885000	2.879507	0.036287 	0.001882
-86.500000	-0.005536	-2.883333	2.877797	0.036274 	0.001883
-86.450000	-0.005579	-2.881667	2.876088	0.036260 	0.001884
-86.400000	-0.005622	-2.880000	2.874378	0.036247 	0.001884
-86.350000	-0.005664	-2.878333	2.872669	0.036233 	0.001885
-86.300000	-0.005707	-2.876667	2.870960	0.036219 	0.001885
-86.250000	-0.005750	-2.875000	2.869250	0.036205 	0.001886
-86.200000	-0.005792	-2.873333	2.867541	0.036190 	0.001886
-86.150000	-0.005835	-2.871667	2.865832	0.036176 	0.001887
-86.100000	-0.005878	-2.870000	2.864122	0.036161 	0.001888
-86.050000	-0.005920	-2.868333	2.862413	0.036146 	0.001888
-86.000000	-0.005963	-2.866667	2.860704	0.036130 	0.001889
-85.950000	-0.006006	-2.865000	2.858994	0.036115 	0.001889
-85.900000	-0.006048	-2.863333	2.857285	0.036099 	0.001890
-85.850000	-0.006091	-2.861667	2.855576	0.036083 	0.001890
-85.800000	-0.006134	-2.860000	2.853866	0.036067 	0.001891
-85.750000	-0.006176	-2.858333	2.852157	0.036050 	0.001891
-85.700000	-0.006219	-2.856667	2.850448	0.036033 	0.001892
-85.650000	-0.006261	-2.855000	2.848739	0.036016 	0.001893
-85.600000	-0.006304	-2.853333	2.847029	0.035999 	0.001893
-85.550000	-0.006346	-2.851667	2.845321	0.035982 	0.001894
-85.500000	-0.006389	-2.850000	2.843611	0.035964 	0.001894
-85.450000	-0.006432	-2.848333	2.841901	0.035946 	0.001895
-85.400000	-0.006474	-2.846667	2.840193	0.035928 	0.001895
-85.350000	-0.006517	-2.845000	2.838483	0.035909 	0.001896
-85.300000	-0.006559	-2.843333	2.836774	0.035890 	0.001897
-85.250000	-0.006602	-2.841667	2.835065	0.035872 	0.001897
-85.200000	-0.006644	-2.840000	2.833356	0.035852 	0.001898
-85.150000	-0.006687	-2.838333	2.831646	0.035833 	0.001898
-85.100000	-0.006729	-2.836667	2.829938	0.035813 	0.001899
-85.050000	-0.006771	-2.835000	2.828229	0.035794 	0.001899
-85.000000	-0.006814	-2.833333	2.826519	0.035773 	0.001900
-84.950000	-0.006856	-2.831667	2.824811	0.035753 	0.001901
-84.900000	-0.006899	-2.830000	2.823101	0.035732 	0.001901
-84.850000	-0.006941	-2.828333	2.821392	0.035712 	0.001902
-84.800000	-0.006983	-2.826667	2.819684	0.035691 	0.001902
-84.750000	-0.007026	-2.825000	2.817974	0.035669 	0.001903
-84.700000	-0.007068	-2.823333	2.816265	0.035648 	0.001903
-84.650000	-0.007110	-2.821667	2.814557	0.035626 	0.001904
-84.600000	-0.007153	-2.820000	2.812847	0.035604 	0.001905
-84.550000	-0.007195	-2.818333	2.811138	0.035582 	0.001905
-84.500000	-0.007237	-2.816667	2.809430	0.035559 	0.001906
-84.450000	-0.007279	-2.815000	2.807721	0.035536 	0.001906
-84.400000	-0.007322	-2.813333	2.806011	0.035513 	0.001907
-84.350000	-0.007364	-2.811667	2.804303	0.035490 	0.001908
-84.300000	-0.007406	-2.810000	2.802594	0.035467 	0.001908
-84.250000	-0.007448	-2.808333	2.800885	0.035443 	0.001909
-84.200000	-0.007490	-2.806667	2.799177	0.035419 	0.001909
-84.150000	-0.007533	-2.805000	2.797467	0.035395 	0.001910
-84.100000	-0.007575	-2.803333	2.795758	0.035370 	0.001910
-84.050000	-0.007617	-2.801667	2.794050	0.035345 	0.001911
-84.000000	-0.007659	-2.800000	2.792341	0.035320 	0.001912
-83.950000	-0.007701	-2.798333	2.790632	0.035295 	0.001912
-83.900000	-0.007743	-2.796667	2.788924	0.035270 	0.001913
-83.850000	-0.007785	-2.795000	2.787215	0.035244 	0.001913
-83.800000	-0.007827	-2.793333	2.785506	0.035218 	0.001914
-83.750000	-0.007869	-2.791667	2.783798	0.035192 	0.001915
-83.700000	-0.007911	-2.790000	2.782089	0.035165 	0.001915
-83.650000	-0.007953	-2.788333	2.780380	0.035139 	0.001916
-83.600000	-0.007995	-2.786667	2.778672	0.035112 	0.001916
-83.550000	-0.008037	-2.785000	2.776963	0.035085 	0.001917
-83.500000	-0.008078	-2.783333	2.775255	0.035057 	0.001918
-83.450000	-0.008120	-2.781667	2.773547	0.035030 	0.001918
-83.400000	-0.008162	-2.780000	2.771838	0.035002 	0.001919
-83.350000	-0.008204	-2.778333	2.770129	0.034973 	0.001919
-83.300000	-0.008246	-2.776667	2.768421	0.034945 	0.001920
-83.250000	-0.008288	-2.775000	2.766712	0.034916 	0.001920
-83.200000	-0.008329	-2.773333	2.765004	0.034887 	0.001921
-83.150000	-0.008371	-2.771667	2.763296	0.034858 	0.001922
-83.100000	-0.008413	-2.770000	2.761587	0.034829 	0.001922
-83.050000	-0.008454	-2.768333	2.759879	0.034799 	0.001923
-83.000000	-0.008496	-2.766667	2.758171	0.034769 	0.001923
-82.950000	-0.008538	-2.765000	2.756462	0.034739 	0.001924
-82.900000	-0.008579	-2.763333	2.754754	0.034709 	0.001925
-82.850000	-0.008621	-2.761667	2.753046	0.034678 	0.001925
-82.800000	-0.008662	-2.760000	2.751338	0.034647 	0.001926
-82.750000	-0.008704	-2.758333	2.749629	0.034616 	0.001926
-82.700000	-0.008745	-2.756667	2.747922	0.034585 	0.001927
-82.650000	-0.008787	-2.755000	2.746213	0.034553 	0.001928
-82.600000	-0.008828	-2.753333	2.744505	0.034521 	0.001928
-82.550000	-0.008870	-2.751667	2.742797	0.034489 	0.001929
-82.500000	-0.008911	-2.750000	2.741089	0.034456 	0.001929
-82.450000	-0.008952	-2.748333	2.739381	0.034424 	0.001930
-82.400000	-0.008994	-2.746667	2.737673	0.034391 	0.001931
-82.350000	-0.009035	-2.745000	2.735965	0.034358 	0.001931
-82.300000	-0.009076	-2.743333	2.734257	0.034324 	0.001932
-82.250000	-0.009117	-2.741667	2.732550	0.034290 	0.001932
-82.200000	-0.009159	-2.740000	2.730841	0.034256 	0.001933
-82.150000	-0.009200	-2.738333	2.729133	0.034222 	0.001934
-82.100000	-0.009241	-2.736667	2.727426	0.034188 	0.001934
-82.050000	-0.009282	-2.735000	2.725718	0.034153 	0.001935
-82.000000	-0.009323	-2.733333	2.724010	0.034118 	0.001935
-81.950000	-0.009364	-2.731667	2.722303	0.034083 	0.001936
-81.900000	-0.009405	-2.730000	2.720595	0.034047 	0.001937
-81.850000	-0.009446	-2.728333	2.718887	0.034012 	0.001937
-81.800000	-0.009487	-2.726667	2.717180	0.033976 	0.001938
-81.750000	-0.009528	-2.725000	2.715472	0.033940 	0.001938
-81.700000	-0.009569	-2.723333	2.713764	0.033903 	0.001939
-81.650000	-0.009610	-2.721667	2.712057	0.033866 	0.001940
-81.600000	-0.009651	-2.720000	2.710349	0.033829 	0.001940
-81.550000	-0.009691	-2.718333	2.708642	0.033792 	0.001941
-81.500000	-0.009732	-2.716667	2.706935	0.033755 	0.001942
-81.450000	-0.009773	-2.715000	2.705227	0.033717 	0.001942
-81.400000	-0.009814	-2.713333	2.703519	0.033679 	0.001943
-81.350000	-0.009854	-2.711667	2.701813	0.033641 	0.001943
-81.300000	-0.009895	-2.710000	2.700105	0.033602 	0.001944
-81.250000	-0.009935	-2.708333	2.698398	0.033563 	0.001945
-81.200000	-0.009976	-2.706667	2.696691	0.033524 	0.001945
-81.150000	-0.010016	-2.705000	2.694984	0.033485 	0.001946
-81.100000	-0.010057	-2.703333	2.693276	0.033445 	0.001946
-81.050000	-0.010097	-2.701667	2.691570	0.033405 	0.001947
-81.000000	-0.010138	-2.700000	2.689862	0.033365 	0.001948
-80.950000	-0.010178	-2.698333	2.688155	0.033325 	0.001948
-80.900000	-0.010219	-2.696667	2.686448	0.033284 	0.001949
-80.850000	-0.010259	-2.695000	2.684741	0.033244 	0.001950
-80.800000	-0.010299	-2.693333	2.683034	0.033202 	0.001950
-80.750000	-0.010339	-2.691667	2.681328	0.033161 	0.001951
-80.700000	-0.010380	-2.690000	2.679620	0.033119 	0.001951
-80.650000	-0.010420	-2.688333	2.677913	0.033078 	0.001952
-80.600000	-0.010460	-2.686667	2.676207	0.033035 	0.001953
-80.550000	-0.010500	-2.685000	2.674500	0.032993 	0.001953
-80.500000	-0.010540	-2.683333	2.672793	0.032950 	0.001954
-80.450000	-0.010580	-2.681667	2.671087	0.032907 	0.001955
-80.400000	-0.010620	-2.680000	2.669380	0.032864 	0.001955
-80.350000	-0.010660	-2.678333	2.667673	0.032821 	0.001956
-80.300000	-0.010700	-2.676667	2.665967	0.032777 	0.001956
-80.250000	-0.010739	-2.675000	2.664261	0.032733 	0.001957
-80.200000	-0.010779	-2.673333	2.662554	0.032689 	0.001958
-80.150000	-0.010819	-2.671667	2.660848	0.032644 	0.001958
-80.100000	-0.010859	-2.670000	2.659141	0.032600 	0.001959
-80.050000	-0.010898	-2.668333	2.657435	0.032555 	0.001960
-80.000000	-0.010938	-2.666667	2.655729	0.032509 	0.001960
-79.950000	-0.010978	-2.665000	2.654022	0.032464 	0.001961
-79.900000	-0.011017	-2.663333	2.652316	0.032418 	0.001961
-79.850000	-0.011057	-2.661667	2.650610	0.032372 	0.001962
-79.800000	-0.011096	-2.660000	2.648904	0.032326 	0.001963
-79.750000	-0.011136	-2.658333	2.647197	0.032279 	0.001963
-79.700000	-0.011175	-2.656667	2.645492	0.032232 	0.001964
-79.650000	-0.011214	-2.655000	2.643786	0.032185 	0.001965
-79.600000	-0.011254	-2.653333	2.642079	0.032138 	0.001965
-79.550000	-0.011293	-2.651667	2.640374	0.032090 	0.001966
-79.500000	-0.011332	-2.650000	2.638668	0.032042 	0.001967
-79.450000	-0.011371	-2.648333	2.636962	0.031994 	0.001967
-79.400000	-0.011410	-2.646667	2.635257	0.031946 	0.001968
-79.350000	-0.011449	-2.645000	2.633551	0.031897 	0.001968
-79.300000	-0.011488	-2.643333	2.631845	0.031848 	0.001969
-79.250000	-0.011527	-2.641667	2.630140	0.031799 	0.001970
-79.200000	-0.011566	-2.640000	2.628434	0.031749 	0.001970
-79.150000	-0.011605	-2.638333	2.626728	0.031700 	0.001971
-79.100000	-0.011644	-2.636667	2.625023	0.031650 	0.001972
-79.050000	-0.011683	-2.635000	2.623317	0.031599 	0.001972
-79.000000	-0.011721	-2.633333	2.621612	0.031549 	0.001973
-78.950000	-0.011760	-2.631667	2.619907	0.031498 	0.001974
-78.900000	-0.011799	-2.630000	2.618201	0.031447 	0.001974
-78.850000	-0.011837	-2.628333	2.616496	0.031396 	0.001975
-78.800000	-0.011876	-2.626667	2.614791	0.031344 	0.001975
-78.750000	-0.011914	-2.625000	2.613086	0.031292 	0.001976
-78.700000	-0.011953	-2.623333	2.611380	0.031240 	0.001977
-78.650000	-0.011991	-2.621667	2.609676	0.031188 	0.001977
-78.600000	-0.012029	-2.620000	2.607971	0.031135 	0.001978
-78.550000	-0.012068	-2.618333	2.606265	0.031082 	0.001979
-78.500000	-0.012106	-2.616667	2.604561	0.031029 	0.001979
-78.450000	-0.012144	-2.615000	2.602856	0.030976 	0.001980
-78.400000	-0.012182	-2.613333	2.601151	0.030922 	0.001981
-78.350000	-0.012220	-2.611667	2.599447	0.030868 	0.001981
-78.300000	-0.012258	-2.610000	2.597742	0.030814 	0.001982
-78.250000	-0.012296	-2.608333	2.596037	0.030759 	0.001983
-78.200000	-0.012334	-2.606667	2.594333	0.030705 	0.001983
-78.150000	-0.012372	-2.605000	2.592628	0.030650 	0.001984
-78.100000	-0.012410	-2.603333	2.590923	0.030594 	0.001985
-78.050000	-0.012447	-2.601667	2.589220	0.030539 	0.001985
-78.000000	-0.012485	-2.600000	2.587515	0.030483 	0.001986
-77.950000	-0.012523	-2.598333	2.585810	0.030427 	0.001987
-77.900000	-0.012560	-2.596667	2.584107	0.030371 	0.001987
-77.850000	-0.012598	-2.595000	2.582402	0.030314 	0.001988
-77.800000	-0.012635	-2.593333	2.580698	0.030257 	0.001988
-77.750000	-0.012673	-2.591667	2.578994	0.030200 	0.001989
-77.700000	-0.012710	-2.590000	2.577290	0.030143 	0.001990
-77.650000	-0.012747	-2.588333	2.575586	0.030085 	0.001990
-77.600000	-0.012785	-2.586667	2.573882	0.030027 	0.001991
-77.550000	-0.012822	-2.585000	2.572178	0.029969 	0.001992
-77.500000	-0.012859	-2.583333	2.570474	0.029910 	0.001992
-77.450000	-0.012896	-2.581667	2.568771	0.029852 	0.001993
-77.400000	-0.012933	-2.580000	2.567067	0.029793 	0.001994
-77.350000	-0.012970	-2.578333	2.565363	0.029733 	0.001994
-77.300000	-0.013007	-2.576667	2.563660	0.029674 	0.001995
-77.250000	-0.013044	-2.575000	2.561956	0.029614 	0.001996
-77.200000	-0.013080	-2.573333	2.560253	0.029554 	0.001996
-77.150000	-0.013117	-2.571667	2.558550	0.029494 	0.001997
-77.100000	-0.013154	-2.570000	2.556846	0.029433 	0.001998
-77.050000	-0.013190	-2.568333	2.555143	0.029372 	0.001998
-77.000000	-0.013227	-2.566667	2.553440	0.029311 	0.001999
-76.950000	-0.013263	-2.565000	2.551737	0.029250 	0.002000
-76.900000	-0.013300	-2.563333	2.550033	0.029188 	0.002000
-76.850000	-0.013336	-2.561667	2.548331	0.029126 	0.002001
-76.800000	-0.013373	-2.560000	2.546627	0.029064 	0.002002
-76.750000	-0.013409	-2.558333	2.544924	0.029002 	0.002002
-76.700000	-0.013445	-2.556667	2.543222	0.028939 	0.002003
-76.650000	-0.013481	-2.555000	2.541519	0.028876 	0.002004
-76.600000	-0.013517	-2.553333	2.539816	0.028813 	0.002004
-76.550000	-0.013553	-2.551667	2.538114	0.028749 	0.002005
-76.500000	-0.013589	-2.550000	2.536411	0.028685 	0.002006
-76.450000	-0.013625	-2.548333	2.534708	0.028621 	0.002006
-76.400000	-0.013661	-2.546667	2.533006	0.028557 	0.002007
-76.350000	-0.013696	-2.545000	2.531304	0.028492 	0.002008
-76.300000	-0.013732	-2.543333	2.529601	0.028427 	0.002008
-76.250000	-0.013767	-2.541667	2.527900	0.028362 	0.002009
-76.200000	-0.013803	-2.540000	2.526197	0.028297 	0.002010
-76.150000	-0.013838	-2.538333	2.524495	0.028231 	0.002010
-76.100000	-0.013874	-2.536667	2.522793	0.028165 	0.002011
-76.050000	-0.013909	-2.535000	2.521091	0.028099 	0.002012
-76.000000	-0.013944	-2.533333	2.519389	0.028033 	0.002013
-75.950000	-0.013980	-2.531667	2.517687	0.027966 	0.002013
-75.900000	-0.014015	-2.530000	2.515985	0.027899 	0.002014
-75.850000	-0.014050	-2.528333	2.514283	0.027832 	0.002015
-75.800000	-0.014085	-2.526667	2.512582	0.027764 	0.002015
-75.750000	-0.014120	-2.525000	2.510880	0.027697 	0.002016
-75.700000	-0.014154	-2.523333	2.509179	0.027629 	0.002017
-75.650000	-0.014189	-2.521667	2.507478	0.027560 	0.002017
-75.600000	-0.014224	-2.520000	2.505776	0.027492 	0.002018
-75.550000	-0.014259	-2.518333	2.504074	0.027423 	0.002019
-75.500000	-0.014293	-2.516667	2.502374	0.027354 	0.002019
-75.450000	-0.014328	-2.515000	2.500672	0.027284 	0.002020
-75.400000	-0.014362	-2.513333	2.498971	0.027215 	0.002021
-75.350000	-0.014396	-2.511667	2.497271	0.027145 	0.002021
-75.300000	-0.014431	-2.510000	2.495569	0.027075 	0.002022
-75.250000	-0.014465	-2.508333	2.493868	0.027004 	0.002023
-75.200000	-0.014499	-2.506667	2.492168	0.026933 	0.002023
-75.150000	-0.014533	-2.505000	2.490467	0.026862 	0.002024
-75.100000	-0.014567	-2.503333	2.488766	0.026791 	0.002025
-75.050000	-0.014601	-2.501667	2.487066	0.026720 	0.002026
-75.000000	-0.014635	-2.500000	2.485365	0.026648 	0.002026
-74.950000	-0.014668	-2.498333	2.483665	0.026576 	0.002027
-74.900000	-0.014702	-2.496667	2.481965	0.026504 	0.002028
-74.850000	-0.014736	-2.495000	2.480264	0.026431 	0.002028
-74.800000	-0.014769	-2.493333	2.478564	0.026358 	0.002029
-74.750000	-0.014803	-2.491667	2.476864	0.026285 	0.002030
-74.700000	-0.014836	-2.490000	2.475164	0.026212 	0.002030
-74.650000	-0.014869	-2.488333	2.473464	0.026138 	0.002031
-74.600000	-0.014903	-2.486667	2.471764	0.026064 	0.002032