VARIABLES = X,Ksi,B,H,U,tau 
ZONE T="Time 55.000000", I=2200, DATAPACKING=POINT
-100.000000	0.000765	-3.333333	3.334098	-0.044288 	0.001749
-99.950000	-0.000900	-3.331667	3.330767	-0.041471 	0.001750
-99.900000	-0.000194	-3.330000	3.329806	-0.042723 	0.001751
-99.850000	-0.000488	-3.328333	3.327845	-0.042259 	0.001751
-99.800000	-0.000359	-3.326667	3.326308	-0.042518 	0.001751
-99.750000	-0.000409	-3.325000	3.324591	-0.042472 	0.001752
-99.700000	-0.000384	-3.323333	3.322949	-0.042554 	0.001752
-99.650000	-0.000390	-3.321667	3.321277	-0.042582 	0.001753
-99.600000	-0.000383	-3.320000	3.319617	-0.042633 	0.001753
-99.550000	-0.000382	-3.318333	3.317951	-0.042674 	0.001754
-99.500000	-0.000378	-3.316667	3.316289	-0.042718 	0.001754
-99.450000	-0.000375	-3.315000	3.314625	-0.042761 	0.001755
-99.400000	-0.000372	-3.313333	3.312961	-0.042805 	0.001755
-99.350000	-0.000369	-3.311667	3.311298	-0.042848 	0.001755
-99.300000	-0.000366	-3.310000	3.309634	-0.042891 	0.001756
-99.250000	-0.000363	-3.308333	3.307970	-0.042933 	0.001756
-99.200000	-0.000359	-3.306667	3.306308	-0.042976 	0.001757
-99.150000	-0.000356	-3.305000	3.304644	-0.043018 	0.001757
-99.100000	-0.000353	-3.303333	3.302980	-0.043060 	0.001758
-99.050000	-0.000350	-3.301667	3.301317	-0.043102 	0.001758
-99.000000	-0.000346	-3.300000	3.299654	-0.043144 	0.001759
-98.950000	-0.000343	-3.298333	3.297990	-0.043186 	0.001759
-98.900000	-0.000340	-3.296667	3.296327	-0.043227 	0.001759
-98.850000	-0.000337	-3.295000	3.294663	-0.043269 	0.001760
-98.800000	-0.000333	-3.293333	3.293000	-0.043310 	0.001760
-98.750000	-0.000330	-3.291667	3.291337	-0.043351 	0.001761
-98.700000	-0.000327	-3.290000	3.289673	-0.043392 	0.001761
-98.650000	-0.000323	-3.288333	3.288010	-0.043432 	0.001762
-98.600000	-0.000320	-3.286667	3.286347	-0.043473 	0.001762
-98.550000	-0.000317	-3.285000	3.284683	-0.043513 	0.001763
-98.500000	-0.000313	-3.283333	3.283020	-0.043553 	0.001763
-98.450000	-0.000310	-3.281667	3.281357	-0.043593 	0.001763
-98.400000	-0.000306	-3.280000	3.279694	-0.043633 	0.001764
-98.350000	-0.000303	-3.278333	3.278030	-0.043673 	0.001764
-98.300000	-0.000299	-3.276667	3.276368	-0.043712 	0.001765
-98.250000	-0.000296	-3.275000	3.274704	-0.043751 	0.001765
-98.200000	-0.000292	-3.273333	3.273041	-0.043791 	0.001766
-98.150000	-0.000289	-3.271667	3.271378	-0.043829 	0.001766
-98.100000	-0.000285	-3.270000	3.269715	-0.043868 	0.001767
-98.050000	-0.000282	-3.268333	3.268051	-0.043907 	0.001767
-98.000000	-0.000278	-3.266667	3.266389	-0.043945 	0.001767
-97.950000	-0.000275	-3.265000	3.264725	-0.043983 	0.001768
-97.900000	-0.000271	-3.263333	3.263062	-0.044021 	0.001768
-97.850000	-0.000267	-3.261667	3.261400	-0.044059 	0.001769
-97.800000	-0.000264	-3.260000	3.259736	-0.044097 	0.001769
-97.750000	-0.000260	-3.258333	3.258073	-0.044135 	0.001770
-97.700000	-0.000257	-3.256667	3.256410	-0.044172 	0.001770
-97.650000	-0.000253	-3.255000	3.254747	-0.044209 	0.001771
-97.600000	-0.000249	-3.253333	3.253084	-0.044246 	0.001771
-97.550000	-0.000245	-3.251667	3.251422	-0.044283 	0.001772
-97.500000	-0.000242	-3.250000	3.249758	-0.044319 	0.001772
-97.450000	-0.000238	-3.248333	3.248095	-0.044356 	0.001772
-97.400000	-0.000234	-3.246667	3.246433	-0.044392 	0.001773
-97.350000	-0.000231	-3.245000	3.244769	-0.044428 	0.001773
-97.300000	-0.000227	-3.243333	3.243106	-0.044464 	0.001774
-97.250000	-0.000223	-3.241667	3.241444	-0.044500 	0.001774
-97.200000	-0.000219	-3.240000	3.239781	-0.044535 	0.001775
-97.150000	-0.000215	-3.238333	3.238118	-0.044570 	0.001775
-97.100000	-0.000211	-3.236667	3.236456	-0.044606 	0.001776
-97.050000	-0.000208	-3.235000	3.234792	-0.044640 	0.001776
-97.000000	-0.000204	-3.233333	3.233129	-0.044675 	0.001777
-96.950000	-0.000200	-3.231667	3.231467	-0.044710 	0.001777
-96.900000	-0.000196	-3.230000	3.229804	-0.044744 	0.001777
-96.850000	-0.000192	-3.228333	3.228141	-0.044778 	0.001778
-96.800000	-0.000188	-3.226667	3.226479	-0.044812 	0.001778
-96.750000	-0.000184	-3.225000	3.224816	-0.044846 	0.001779
-96.700000	-0.000180	-3.223333	3.223153	-0.044880 	0.001779
-96.650000	-0.000176	-3.221667	3.221491	-0.044913 	0.001780
-96.600000	-0.000172	-3.220000	3.219828	-0.044947 	0.001780
-96.550000	-0.000168	-3.218333	3.218165	-0.044980 	0.001781
-96.500000	-0.000164	-3.216667	3.216503	-0.045013 	0.001781
-96.450000	-0.000160	-3.215000	3.214840	-0.045045 	0.001782
-96.400000	-0.000156	-3.213333	3.213177	-0.045078 	0.001782
-96.350000	-0.000152	-3.211667	3.211515	-0.045110 	0.001783
-96.300000	-0.000148	-3.210000	3.209852	-0.045142 	0.001783
-96.250000	-0.000144	-3.208333	3.208189	-0.045174 	0.001783
-96.200000	-0.000140	-3.206667	3.206527	-0.045206 	0.001784
-96.150000	-0.000136	-3.205000	3.204864	-0.045237 	0.001784
-96.100000	-0.000132	-3.203333	3.203201	-0.045269 	0.001785
-96.050000	-0.000127	-3.201667	3.201540	-0.045300 	0.001785
-96.000000	-0.000123	-3.200000	3.199877	-0.045331 	0.001786
-95.950000	-0.000119	-3.198333	3.198214	-0.045361 	0.001786
-95.900000	-0.000115	-3.196667	3.196552	-0.045392 	0.001787
-95.850000	-0.000111	-3.195000	3.194889	-0.045422 	0.001787
-95.800000	-0.000106	-3.193333	3.193227	-0.045453 	0.001788
-95.750000	-0.000102	-3.191667	3.191565	-0.045483 	0.001788
-95.700000	-0.000098	-3.190000	3.189902	-0.045512 	0.001789
-95.650000	-0.000094	-3.188333	3.188239	-0.045542 	0.001789
-95.600000	-0.000089	-3.186667	3.186578	-0.045571 	0.001789
-95.550000	-0.000085	-3.185000	3.184915	-0.045600 	0.001790
-95.500000	-0.000081	-3.183333	3.183252	-0.045629 	0.001790
-95.450000	-0.000076	-3.181667	3.181591	-0.045658 	0.001791
-95.400000	-0.000072	-3.180000	3.179928	-0.045687 	0.001791
-95.350000	-0.000068	-3.178333	3.178265	-0.045715 	0.001792
-95.300000	-0.000063	-3.176667	3.176604	-0.045743 	0.001792
-95.250000	-0.000059	-3.175000	3.174941	-0.045771 	0.001793
-95.200000	-0.000055	-3.173333	3.173278	-0.045799 	0.001793
-95.150000	-0.000050	-3.171667	3.171617	-0.045827 	0.001794
-95.100000	-0.000046	-3.170000	3.169954	-0.045854 	0.001794
-95.050000	-0.000041	-3.168333	3.168292	-0.045881 	0.001795
-95.000000	-0.000037	-3.166667	3.166630	-0.045908 	0.001795
-94.950000	-0.000032	-3.165000	3.164968	-0.045935 	0.001796
-94.900000	-0.000028	-3.163333	3.163305	-0.045962 	0.001796
-94.850000	-0.000023	-3.161667	3.161644	-0.045988 	0.001797
-94.800000	-0.000019	-3.160000	3.159981	-0.046014 	0.001797
-94.750000	-0.000014	-3.158333	3.158319	-0.046040 	0.001797
-94.700000	-0.000010	-3.156667	3.156657	-0.046066 	0.001798
-94.650000	-0.000005	-3.155000	3.154995	-0.046091 	0.001798
-94.600000	-0.000001	-3.153333	3.153332	-0.046117 	0.001799
-94.550000	0.000004	-3.151667	3.151671	-0.046142 	0.001799
-94.500000	0.000009	-3.150000	3.150009	-0.046167 	0.001800
-94.450000	0.000013	-3.148333	3.148346	-0.046191 	0.001800
-94.400000	0.000018	-3.146667	3.146685	-0.046216 	0.001801
-94.350000	0.000022	-3.145000	3.145022	-0.046240 	0.001801
-94.300000	0.000027	-3.143333	3.143360	-0.046264 	0.001802
-94.250000	0.000032	-3.141667	3.141699	-0.046288 	0.001802
-94.200000	0.000036	-3.140000	3.140036	-0.046312 	0.001803
-94.150000	0.000041	-3.138333	3.138374	-0.046335 	0.001803
-94.100000	0.000046	-3.136667	3.136713	-0.046358 	0.001804
-94.050000	0.000051	-3.135000	3.135051	-0.046381 	0.001804
-94.000000	0.000055	-3.133333	3.133388	-0.046404 	0.001805
-93.950000	0.000060	-3.131667	3.131727	-0.046427 	0.001805
-93.900000	0.000065	-3.130000	3.130065	-0.046449 	0.001806
-93.850000	0.000070	-3.128333	3.128403	-0.046472 	0.001806
-93.800000	0.000074	-3.126667	3.126741	-0.046493 	0.001807
-93.750000	0.000079	-3.125000	3.125079	-0.046515 	0.001807
-93.700000	0.000084	-3.123333	3.123417	-0.046537 	0.001807
-93.650000	0.000089	-3.121667	3.121756	-0.046558 	0.001808
-93.600000	0.000094	-3.120000	3.120094	-0.046579 	0.001808
-93.550000	0.000099	-3.118333	3.118432	-0.046600 	0.001809
-93.500000	0.000104	-3.116667	3.116771	-0.046621 	0.001809
-93.450000	0.000108	-3.115000	3.115108	-0.046641 	0.001810
-93.400000	0.000113	-3.113333	3.113446	-0.046662 	0.001810
-93.350000	0.000118	-3.111667	3.111785	-0.046682 	0.001811
-93.300000	0.000123	-3.110000	3.110123	-0.046701 	0.001811
-93.250000	0.000128	-3.108333	3.108461	-0.046721 	0.001812
-93.200000	0.000133	-3.106667	3.106800	-0.046740 	0.001812
-93.150000	0.000138	-3.105000	3.105138	-0.046759 	0.001813
-93.100000	0.000143	-3.103333	3.103476	-0.046778 	0.001813
-93.050000	0.000148	-3.101667	3.101815	-0.046797 	0.001814
-93.000000	0.000153	-3.100000	3.100153	-0.046816 	0.001814
-92.950000	0.000158	-3.098333	3.098491	-0.046834 	0.001815
-92.900000	0.000163	-3.096667	3.096830	-0.046852 	0.001815
-92.850000	0.000168	-3.095000	3.095168	-0.046870 	0.001816
-92.800000	0.000173	-3.093333	3.093506	-0.046887 	0.001816
-92.750000	0.000178	-3.091667	3.091845	-0.046905 	0.001817
-92.700000	0.000184	-3.090000	3.090184	-0.046922 	0.001817
-92.650000	0.000189	-3.088333	3.088522	-0.046939 	0.001818
-92.600000	0.000194	-3.086667	3.086861	-0.046956 	0.001818
-92.550000	0.000199	-3.085000	3.085199	-0.046972 	0.001819
-92.500000	0.000204	-3.083333	3.083537	-0.046988 	0.001819
-92.450000	0.000209	-3.081667	3.081876	-0.047004 	0.001820
-92.400000	0.000214	-3.080000	3.080214	-0.047020 	0.001820
-92.350000	0.000220	-3.078333	3.078553	-0.047036 	0.001821
-92.300000	0.000225	-3.076667	3.076892	-0.047051 	0.001821
-92.250000	0.000230	-3.075000	3.075230	-0.047066 	0.001822
-92.200000	0.000235	-3.073333	3.073568	-0.047081 	0.001822
-92.150000	0.000240	-3.071667	3.071907	-0.047096 	0.001823
-92.100000	0.000246	-3.070000	3.070246	-0.047111 	0.001823
-92.050000	0.000251	-3.068333	3.068584	-0.047125 	0.001824
-92.000000	0.000256	-3.066667	3.066923	-0.047139 	0.001824
-91.950000	0.000262	-3.065000	3.065262	-0.047153 	0.001825
-91.900000	0.000267	-3.063333	3.063600	-0.047166 	0.001825
-91.850000	0.000272	-3.061667	3.061939	-0.047179 	0.001826
-91.800000	0.000278	-3.060000	3.060278	-0.047193 	0.001826
-91.750000	0.000283	-3.058333	3.058616	-0.047205 	0.001827
-91.700000	0.000288	-3.056667	3.056955	-0.047218 	0.001827
-91.650000	0.000294	-3.055000	3.055294	-0.047230 	0.001828
-91.600000	0.000299	-3.053333	3.053632	-0.047243 	0.001828
-91.550000	0.000304	-3.051667	3.051971	-0.047255 	0.001829
-91.500000	0.000310	-3.050000	3.050310	-0.047266 	0.001829
-91.450000	0.000315	-3.048333	3.048648	-0.047278 	0.001830
-91.400000	0.000321	-3.046667	3.046988	-0.047289 	0.001830
-91.350000	0.000326	-3.045000	3.045326	-0.047300 	0.001831
-91.300000	0.000332	-3.043333	3.043665	-0.047311 	0.001831
-91.250000	0.000337	-3.041667	3.042004	-0.047321 	0.001832
-91.200000	0.000343	-3.040000	3.040343	-0.047332 	0.001832
-91.150000	0.000348	-3.038333	3.038681	-0.047342 	0.001833
-91.100000	0.000354	-3.036667	3.037021	-0.047351 	0.001833
-91.050000	0.000359	-3.035000	3.035359	-0.047361 	0.001834
-91.000000	0.000365	-3.033333	3.033698	-0.047370 	0.001834
-90.950000	0.000370	-3.031667	3.032037	-0.047379 	0.001835
-90.900000	0.000376	-3.030000	3.030376	-0.047388 	0.001835
-90.850000	0.000381	-3.028333	3.028714	-0.047397 	0.001836
-90.800000	0.000387	-3.026667	3.027054	-0.047405 	0.001836
-90.750000	0.000392	-3.025000	3.025392	-0.047414 	0.001837
-90.700000	0.000398	-3.023333	3.023731	-0.047422 	0.001837
-90.650000	0.000404	-3.021667	3.022071	-0.047429 	0.001838
-90.600000	0.000409	-3.020000	3.020409	-0.047437 	0.001838
-90.550000	0.000415	-3.018333	3.018748	-0.047444 	0.001839
-90.500000	0.000420	-3.016667	3.017087	-0.047451 	0.001839
-90.450000	0.000426	-3.015000	3.015426	-0.047458 	0.001840
-90.400000	0.000432	-3.013333	3.013765	-0.047464 	0.001840
-90.350000	0.000437	-3.011667	3.012104	-0.047470 	0.001841
-90.300000	0.000443	-3.010000	3.010443	-0.047476 	0.001841
-90.250000	0.000449	-3.008333	3.008782	-0.047482 	0.001842
-90.200000	0.000455	-3.006667	3.007122	-0.047488 	0.001842
-90.150000	0.000460	-3.005000	3.005460	-0.047493 	0.001843
-90.100000	0.000466	-3.003333	3.003799	-0.047498 	0.001843
-90.050000	0.000472	-3.001667	3.002139	-0.047503 	0.001844
-90.000000	0.000477	-3.000000	3.000477	-0.047507 	0.001844
-89.950000	0.000483	-2.998333	2.998816	-0.047511 	0.001845
-89.900000	0.000489	-2.996667	2.997156	-0.047516 	0.001845
-89.850000	0.000495	-2.995000	2.995495	-0.047519 	0.001846
-89.800000	0.000501	-2.993333	2.993834	-0.047523 	0.001846
-89.750000	0.000506	-2.991667	2.992173	-0.047526 	0.001847
-89.700000	0.000512	-2.990000	2.990512	-0.047529 	0.001847
-89.650000	0.000518	-2.988333	2.988851	-0.047532 	0.001848
-89.600000	0.000524	-2.986667	2.987191	-0.047535 	0.001848
-89.550000	0.000530	-2.985000	2.985530	-0.047537 	0.001849
-89.500000	0.000536	-2.983333	2.983869	-0.047539 	0.001849
-89.450000	0.000541	-2.981667	2.982208	-0.047541 	0.001850
-89.400000	0.000547	-2.980000	2.980547	-0.047542 	0.001850
-89.350000	0.000553	-2.978333	2.978886	-0.047544 	0.001851
-89.300000	0.000559	-2.976667	2.977226	-0.047545 	0.001851
-89.250000	0.000565	-2.975000	2.975565	-0.047545 	0.001852
-89.200000	0.000571	-2.973333	2.973904	-0.047546 	0.001852
-89.150000	0.000577	-2.971667	2.972244	-0.047546 	0.001853
-89.100000	0.000583	-2.970000	2.970583	-0.047546 	0.001853
-89.050000	0.000589	-2.968333	2.968922	-0.047546 	0.001854
-89.000000	0.000595	-2.966667	2.967262	-0.047546 	0.001854
-88.950000	0.000601	-2.965000	2.965601	-0.047545 	0.001855
-88.900000	0.000607	-2.963333	2.963940	-0.047544 	0.001855
-88.850000	0.000613	-2.961667	2.962280	-0.047543 	0.001856
-88.800000	0.000619	-2.960000	2.960619	-0.047541 	0.001857
-88.750000	0.000625	-2.958333	2.958958	-0.047540 	0.001857
-88.700000	0.000631	-2.956667	2.957298	-0.047538 	0.001858
-88.650000	0.000637	-2.955000	2.955637	-0.047535 	0.001858
-88.600000	0.000643	-2.953333	2.953976	-0.047533 	0.001859
-88.550000	0.000649	-2.951667	2.952316	-0.047530 	0.001859
-88.500000	0.000655	-2.950000	2.950655	-0.047527 	0.001860
-88.450000	0.000661	-2.948333	2.948994	-0.047524 	0.001860
-88.400000	0.000667	-2.946667	2.947334	-0.047520 	0.001861
-88.350000	0.000673	-2.945000	2.945673	-0.047517 	0.001861
-88.300000	0.000679	-2.943333	2.944012	-0.047512 	0.001862
-88.250000	0.000685	-2.941667	2.942352	-0.047508 	0.001862
-88.200000	0.000691	-2.940000	2.940691	-0.047504 	0.001863
-88.150000	0.000698	-2.938333	2.939031	-0.047499 	0.001863
-88.100000	0.000704	-2.936667	2.937371	-0.047494 	0.001864
-88.050000	0.000710	-2.935000	2.935710	-0.047488 	0.001864
-88.000000	0.000716	-2.933333	2.934049	-0.047483 	0.001865
-87.950000	0.000722	-2.931667	2.932389	-0.047477 	0.001865
-87.900000	0.000728	-2.930000	2.930728	-0.047471 	0.001866
-87.850000	0.000734	-2.928333	2.929067	-0.047464 	0.001866
-87.800000	0.000741	-2.926667	2.927408	-0.047458 	0.001867
-87.750000	0.000747	-2.925000	2.925747	-0.047451 	0.001868
-87.700000	0.000753	-2.923333	2.924086	-0.047443 	0.001868
-87.650000	0.000759	-2.921667	2.922426	-0.047436 	0.001869
-87.600000	0.000765	-2.920000	2.920765	-0.047428 	0.001869
-87.550000	0.000772	-2.918333	2.919105	-0.047420 	0.001870
-87.500000	0.000778	-2.916667	2.917445	-0.047412 	0.001870
-87.450000	0.000784	-2.915000	2.915784	-0.047404 	0.001871
-87.400000	0.000790	-2.913333	2.914123	-0.047395 	0.001871
-87.350000	0.000797	-2.911667	2.912464	-0.047386 	0.001872
-87.300000	0.000803	-2.910000	2.910803	-0.047376 	0.001872
-87.250000	0.000809	-2.908333	2.909142	-0.047367 	0.001873
-87.200000	0.000815	-2.906667	2.907482	-0.047357 	0.001873
-87.150000	0.000822	-2.905000	2.905822	-0.047347 	0.001874
-87.100000	0.000828	-2.903333	2.904161	-0.047336 	0.001874
-87.050000	0.000834	-2.901667	2.902501	-0.047326 	0.001875
-87.000000	0.000841	-2.900000	2.900841	-0.047315 	0.001876
-86.950000	0.000847	-2.898333	2.899180	-0.047303 	0.001876
-86.900000	0.000853	-2.896667	2.897520	-0.047292 	0.001877
-86.850000	0.000860	-2.895000	2.895860	-0.047280 	0.001877
-86.800000	0.000866	-2.893333	2.894199	-0.047268 	0.001878
-86.750000	0.000872	-2.891667	2.892539	-0.047256 	0.001878
-86.700000	0.000879	-2.890000	2.890879	-0.047243 	0.001879
-86.650000	0.000885	-2.888333	2.889218	-0.047231 	0.001879
-86.600000	0.000891	-2.886667	2.887558	-0.047217 	0.001880
-86.550000	0.000898	-2.885000	2.885898	-0.047204 	0.001880
-86.500000	0.000904	-2.883333	2.884237	-0.047190 	0.001881
-86.450000	0.000910	-2.881667	2.882577	-0.047176 	0.001881
-86.400000	0.000917	-2.880000	2.880917	-0.047162 	0.001882
-86.350000	0.000923	-2.878333	2.879256	-0.047148 	0.001883
-86.300000	0.000930	-2.876667	2.877597	-0.047133 	0.001883
-86.250000	0.000936	-2.875000	2.875936	-0.047118 	0.001884
-86.200000	0.000942	-2.873333	2.874275	-0.047103 	0.001884
-86.150000	0.000949	-2.871667	2.872616	-0.047087 	0.001885
-86.100000	0.000955	-2.870000	2.870955	-0.047071 	0.001885
-86.050000	0.000962	-2.868333	2.869295	-0.047055 	0.001886
-86.000000	0.000968	-2.866667	2.867635	-0.047039 	0.001886
-85.950000	0.000974	-2.865000	2.865974	-0.047022 	0.001887
-85.900000	0.000981	-2.863333	2.864314	-0.047005 	0.001887
-85.850000	0.000987	-2.861667	2.862654	-0.046988 	0.001888
-85.800000	0.000994	-2.860000	2.860994	-0.046970 	0.001889
-85.750000	0.001000	-2.858333	2.859333	-0.046952 	0.001889
-85.700000	0.001007	-2.856667	2.857674	-0.046934 	0.001890
-85.650000	0.001013	-2.855000	2.856013	-0.046916 	0.001890
-85.600000	0.001020	-2.853333	2.854353	-0.046897 	0.001891
-85.550000	0.001026	-2.851667	2.852693	-0.046878 	0.001891
-85.500000	0.001033	-2.850000	2.851033	-0.046859 	0.001892
-85.450000	0.001039	-2.848333	2.849372	-0.046839 	0.001892
-85.400000	0.001046	-2.846667	2.847713	-0.046819 	0.001893
-85.350000	0.001052	-2.845000	2.846052	-0.046799 	0.001894
-85.300000	0.001059	-2.843333	2.844392	-0.046779 	0.001894
-85.250000	0.001065	-2.841667	2.842732	-0.046758 	0.001895
-85.200000	0.001072	-2.840000	2.841072	-0.046737 	0.001895
-85.150000	0.001078	-2.838333	2.839411	-0.046716 	0.001896
-85.100000	0.001085	-2.836667	2.837752	-0.046695 	0.001896
-85.050000	0.001091	-2.835000	2.836091	-0.046673 	0.001897
-85.000000	0.001098	-2.833333	2.834431	-0.046651 	0.001897
-84.950000	0.001104	-2.831667	2.832771	-0.046628 	0.001898
-84.900000	0.001111	-2.830000	2.831111	-0.046606 	0.001898
-84.850000	0.001117	-2.828333	2.829450	-0.046583 	0.001899
-84.800000	0.001124	-2.826667	2.827791	-0.046559 	0.001900
-84.750000	0.001130	-2.825000	2.826130	-0.046536 	0.001900
-84.700000	0.001137	-2.823333	2.824470	-0.046512 	0.001901
-84.650000	0.001143	-2.821667	2.822810	-0.046488 	0.001901
-84.600000	0.001150	-2.820000	2.821150	-0.046464 	0.001902
-84.550000	0.001156	-2.818333	2.819489	-0.046439 	0.001902
-84.500000	0.001163	-2.816667	2.817830	-0.046414 	0.001903
-84.450000	0.001169	-2.815000	2.816169	-0.046389 	0.001904
-84.400000	0.001176	-2.813333	2.814509	-0.046363 	0.001904
-84.350000	0.001182	-2.811667	2.812849	-0.046337 	0.001905
-84.300000	0.001189	-2.810000	2.811189	-0.046311 	0.001905
-84.250000	0.001196	-2.808333	2.809529	-0.046284 	0.001906
-84.200000	0.001202	-2.806667	2.807869	-0.046258 	0.001906
-84.150000	0.001209	-2.805000	2.806209	-0.046231 	0.001907
-84.100000	0.001215	-2.803333	2.804548	-0.046203 	0.001907
-84.050000	0.001222	-2.801667	2.802889	-0.046176 	0.001908
-84.000000	0.001228	-2.800000	2.801228	-0.046148 	0.001909
-83.950000	0.001235	-2.798333	2.799568	-0.046119 	0.001909
-83.900000	0.001242	-2.796667	2.797909	-0.046091 	0.001910
-83.850000	0.001248	-2.795000	2.796248	-0.046062 	0.001910
-83.800000	0.001255	-2.793333	2.794588	-0.046033 	0.001911
-83.750000	0.001261	-2.791667	2.792928	-0.046003 	0.001911
-83.700000	0.001268	-2.790000	2.791268	-0.045974 	0.001912
-83.650000	0.001274	-2.788333	2.789607	-0.045944 	0.001913
-83.600000	0.001281	-2.786667	2.787948	-0.045913 	0.001913
-83.550000	0.001287	-2.785000	2.786287	-0.045883 	0.001914
-83.500000	0.001294	-2.783333	2.784627	-0.045852 	0.001914
-83.450000	0.001301	-2.781667	2.782968	-0.045821 	0.001915
-83.400000	0.001307	-2.780000	2.781307	-0.045789 	0.001915
-83.350000	0.001314	-2.778333	2.779647	-0.045757 	0.001916
-83.300000	0.001320	-2.776667	2.777987	-0.045725 	0.001917
-83.250000	0.001327	-2.775000	2.776327	-0.045693 	0.001917
-83.200000	0.001333	-2.773333	2.774666	-0.045660 	0.001918
-83.150000	0.001340	-2.771667	2.773007	-0.045627 	0.001918
-83.100000	0.001346	-2.770000	2.771346	-0.045593 	0.001919
-83.050000	0.001353	-2.768333	2.769686	-0.045560 	0.001919
-83.000000	0.001360	-2.766667	2.768027	-0.045526 	0.001920
-82.950000	0.001366	-2.765000	2.766366	-0.045492 	0.001921
-82.900000	0.001373	-2.763333	2.764706	-0.045457 	0.001921
-82.850000	0.001379	-2.761667	2.763046	-0.045422 	0.001922
-82.800000	0.001386	-2.760000	2.761386	-0.045387 	0.001922
-82.750000	0.001392	-2.758333	2.759725	-0.045351 	0.001923
-82.700000	0.001399	-2.756667	2.758066	-0.045316 	0.001923
-82.650000	0.001405	-2.755000	2.756405	-0.045280 	0.001924
-82.600000	0.001412	-2.753333	2.754745	-0.045243 	0.001925
-82.550000	0.001418	-2.751667	2.753085	-0.045206 	0.001925
-82.500000	0.001425	-2.750000	2.751425	-0.045169 	0.001926
-82.450000	0.001431	-2.748333	2.749764	-0.045132 	0.001926
-82.400000	0.001438	-2.746667	2.748105	-0.045094 	0.001927
-82.350000	0.001444	-2.745000	2.746444	-0.045056 	0.001928
-82.300000	0.001451	-2.743333	2.744784	-0.045018 	0.001928
-82.250000	0.001457	-2.741667	2.743124	-0.044979 	0.001929
-82.200000	0.001464	-2.740000	2.741464	-0.044940 	0.001929
-82.150000	0.001470	-2.738333	2.739803	-0.044901 	0.001930
-82.100000	0.001477	-2.736667	2.738144	-0.044862 	0.001930
-82.050000	0.001483	-2.735000	2.736483	-0.044822 	0.001931
-82.000000	0.001490	-2.733333	2.734823	-0.044782 	0.001932
-81.950000	0.001496	-2.731667	2.733163	-0.044741 	0.001932
-81.900000	0.001503	-2.730000	2.731503	-0.044700 	0.001933
-81.850000	0.001509	-2.728333	2.729842	-0.044659 	0.001933
-81.800000	0.001516	-2.726667	2.728183	-0.044618 	0.001934
-81.750000	0.001522	-2.725000	2.726522	-0.044576 	0.001935
-81.700000	0.001529	-2.723333	2.724862	-0.044534 	0.001935
-81.650000	0.001535	-2.721667	2.723202	-0.044491 	0.001936
-81.600000	0.001542	-2.720000	2.721542	-0.044449 	0.001936
-81.550000	0.001548	-2.718333	2.719881	-0.044405 	0.001937
-81.500000	0.001554	-2.716667	2.718221	-0.044362 	0.001938
-81.450000	0.001561	-2.715000	2.716561	-0.044318 	0.001938
-81.400000	0.001567	-2.713333	2.714900	-0.044274 	0.001939
-81.350000	0.001574	-2.711667	2.713241	-0.044230 	0.001939
-81.300000	0.001580	-2.710000	2.711580	-0.044185 	0.001940
-81.250000	0.001586	-2.708333	2.709919	-0.044140 	0.001940
-81.200000	0.001593	-2.706667	2.708260	-0.044095 	0.001941
-81.150000	0.001599	-2.705000	2.706599	-0.044049 	0.001942
-81.100000	0.001606	-2.703333	2.704939	-0.044003 	0.001942
-81.050000	0.001612	-2.701667	2.703279	-0.043957 	0.001943
-81.000000	0.001618	-2.700000	2.701618	-0.043910 	0.001943
-80.950000	0.001625	-2.698333	2.699958	-0.043863 	0.001944
-80.900000	0.001631	-2.696667	2.698298	-0.043816 	0.001945
-80.850000	0.001637	-2.695000	2.696637	-0.043769 	0.001945
-80.800000	0.001643	-2.693333	2.694976	-0.043721 	0.001946
-80.750000	0.001650	-2.691667	2.693317	-0.043672 	0.001946
-80.700000	0.001656	-2.690000	2.691656	-0.043624 	0.001947
-80.650000	0.001662	-2.688333	2.689995	-0.043575 	0.001948
-80.600000	0.001669	-2.686667	2.688336	-0.043526 	0.001948
-80.550000	0.001675	-2.685000	2.686675	-0.043476 	0.001949
-80.500000	0.001681	-2.683333	2.685014	-0.043426 	0.001949
-80.450000	0.001687	-2.681667	2.683354	-0.043376 	0.001950
-80.400000	0.001694	-2.680000	2.681694	-0.043325 	0.001951
-80.350000	0.001700	-2.678333	2.680033	-0.043274 	0.001951
-80.300000	0.001706	-2.676667	2.678373	-0.043223 	0.001952
-80.250000	0.001712	-2.675000	2.676712	-0.043171 	0.001952
-80.200000	0.001718	-2.673333	2.675051	-0.043120 	0.001953
-80.150000	0.001725	-2.671667	2.673392	-0.043067 	0.001954
-80.100000	0.001731	-2.670000	2.671731	-0.043015 	0.001954
-80.050000	0.001737	-2.668333	2.670070	-0.042962 	0.001955
-80.000000	0.001743	-2.666667	2.668410	-0.042908 	0.001956
-79.950000	0.001749	-2.665000	2.666749	-0.042855 	0.001956
-79.900000	0.001755	-2.663333	2.665088	-0.042801 	0.001957
-79.850000	0.001761	-2.661667	2.663428	-0.042747 	0.001957
-79.800000	0.001767	-2.660000	2.661767	-0.042692 	0.001958
-79.750000	0.001773	-2.658333	2.660106	-0.042637 	0.001959
-79.700000	0.001779	-2.656667	2.658446	-0.042582 	0.001959
-79.650000	0.001786	-2.655000	2.656786	-0.042526 	0.001960
-79.600000	0.001792	-2.653333	2.655125	-0.042470 	0.001960
-79.550000	0.001798	-2.651667	2.653465	-0.042414 	0.001961
-79.500000	0.001804	-2.650000	2.651804	-0.042357 	0.001962
-79.450000	0.001810	-2.648333	2.650143	-0.042300 	0.001962
-79.400000	0.001815	-2.646667	2.648482	-0.042243 	0.001963
-79.350000	0.001821	-2.645000	2.646821	-0.042185 	0.001963
-79.300000	0.001827	-2.643333	2.645160	-0.042127 	0.001964
-79.250000	0.001833	-2.641667	2.643500	-0.042069 	0.001965
-79.200000	0.001839	-2.640000	2.641839	-0.042010 	0.001965
-79.150000	0.001845	-2.638333	2.640178	-0.041951 	0.001966
-79.100000	0.001851	-2.636667	2.638518	-0.041891 	0.001967
-79.050000	0.001857	-2.635000	2.636857	-0.041832 	0.001967
-79.000000	0.001863	-2.633333	2.635196	-0.041772 	0.001968
-78.950000	0.001868	-2.631667	2.633535	-0.041711 	0.001968
-78.900000	0.001874	-2.630000	2.631874	-0.041650 	0.001969
-78.850000	0.001880	-2.628333	2.630213	-0.041589 	0.001970
-78.800000	0.001886	-2.626667	2.628553	-0.041528 	0.001970
-78.750000	0.001892	-2.625000	2.626892	-0.041466 	0.001971
-78.700000	0.001897	-2.623333	2.625230	-0.041404 	0.001972
-78.650000	0.001903	-2.621667	2.623570	-0.041341 	0.001972
-78.600000	0.001909	-2.620000	2.621909	-0.041278 	0.001973
-78.550000	0.001914	-2.618333	2.620247	-0.041215 	0.001973
-78.500000	0.001920	-2.616667	2.618587	-0.041151 	0.001974
-78.450000	0.001926	-2.615000	2.616926	-0.041087 	0.001975
-78.400000	0.001931	-2.613333	2.615264	-0.041023 	0.001975
-78.350000	0.001937	-2.611667	2.613604	-0.040958 	0.001976
-78.300000	0.001943	-2.610000	2.611943	-0.040893 	0.001977
-78.250000	0.001948	-2.608333	2.610281	-0.040828 	0.001977
-78.200000	0.001954	-2.606667	2.608621	-0.040762 	0.001978
-78.150000	0.001959	-2.605000	2.606959	-0.040696 	0.001978
-78.100000	0.001965	-2.603333	2.605298	-0.040630 	0.001979
-78.050000	0.001970	-2.601667	2.603637	-0.040563 	0.001980
-78.000000	0.001976	-2.600000	2.601976	-0.040496 	0.001980
-77.950000	0.001981	-2.598333	2.600314	-0.040428 	0.001981
-77.900000	0.001987	-2.596667	2.598654	-0.040360 	0.001982
-77.850000	0.001992	-2.595000	2.596992	-0.040292 	0.001982
-77.800000	0.001997	-2.593333	2.595330	-0.040224 	0.001983
-77.750000	0.002003	-2.591667	2.593670	-0.040155 	0.001983
-77.700000	0.002008	-2.590000	2.592008	-0.040085 	0.001984
-77.650000	0.002014	-2.588333	2.590347	-0.040016 	0.001985
-77.600000	0.002019	-2.586667	2.588686	-0.039946 	0.001985
-77.550000	0.002024	-2.585000	2.587024	-0.039875 	0.001986
-77.500000	0.002029	-2.583333	2.585362	-0.039805 	0.001987
-77.450000	0.002035	-2.581667	2.583702	-0.039733 	0.001987
-77.400000	0.002040	-2.580000	2.582040	-0.039662 	0.001988
-77.350000	0.002045	-2.578333	2.580378	-0.039590 	0.001989
-77.300000	0.002050	-2.576667	2.578717	-0.039518 	0.001989
-77.250000	0.002055	-2.575000	2.577055	-0.039445 	0.001990
-77.200000	0.002061	-2.573333	2.575394	-0.039373 	0.001991
-77.150000	0.002066	-2.571667	2.573733	-0.039299 	0.001991
-77.100000	0.002071	-2.570000	2.572071	-0.039226 	0.001992
-77.050000	0.002076	-2.568333	2.570409	-0.039152 	0.001992
-77.000000	0.002081	-2.566667	2.568748	-0.039077 	0.001993
-76.950000	0.002086	-2.565000	2.567086	-0.039003 	0.001994
-76.900000	0.002091	-2.563333	2.565424	-0.038927 	0.001994
-76.850000	0.002096	-2.561667	2.563763	-0.038852 	0.001995
-76.800000	0.002101	-2.560000	2.562101	-0.038776 	0.001996
-76.750000	0.002106	-2.558333	2.560439	-0.038700 	0.001996
-76.700000	0.002111	-2.556667	2.558778	-0.038623 	0.001997
-76.650000	0.002116	-2.555000	2.557116	-0.038547 	0.001998
-76.600000	0.002121	-2.553333	2.555454	-0.038469 	0.001998
-76.550000	0.002125	-2.551667	2.553792	-0.038392 	0.001999
-76.500000	0.002130	-2.550000	2.552130	-0.038314 	0.002000
-76.450000	0.002135	-2.548333	2.550468	-0.038235 	0.002000
-76.400000	0.002140	-2.546667	2.548807	-0.038157 	0.002001
-76.350000	0.002145	-2.545000	2.547145	-0.038077 	0.002002
-76.300000	0.002149	-2.543333	2.545482	-0.037998 	0.002002
-76.250000	0.002154	-2.541667	2.543821	-0.037918 	0.002003
-76.200000	0.002159	-2.540000	2.542159	-0.037838 	0.002003
-76.150000	0.002163	-2.538333	2.540496	-0.037757 	0.002004
-76.100000	0.002168	-2.536667	2.538835	-0.037676 	0.002005
-76.050000	0.002173	-2.535000	2.537173	-0.037595 	0.002005
-76.000000	0.002177	-2.533333	2.535510	-0.037513 	0.002006
-75.950000	0.002182	-2.531667	2.533849	-0.037431 	0.002007
-75.900000	0.002186	-2.530000	2.532186	-0.037349 	0.002007
-75.850000	0.002191	-2.528333	2.530524	-0.037266 	0.002008
-75.800000	0.002195	-2.526667	2.528862	-0.037183 	0.002009
-75.750000	0.002200	-2.525000	2.527200	-0.037099 	0.002009
-75.700000	0.002204	-2.523333	2.525537	-0.037015 	0.002010
-75.650000	0.002209	-2.521667	2.523876	-0.036931 	0.002011
-75.600000	0.002213	-2.520000	2.522213	-0.036846 	0.002011
-75.550000	0.002217	-2.518333	2.520550	-0.036761 	0.002012
-75.500000	0.002222	-2.516667	2.518889	-0.036676 	0.002013
-75.450000	0.002226	-2.515000	2.517226	-0.036590 	0.002013
-75.400000	0.002230	-2.513333	2.515563	-0.036504 	0.002014
-75.350000	0.002235	-2.511667	2.513902	-0.036418 	0.002015
-75.300000	0.002239	-2.510000	2.512239	-0.036331 	0.002015
-75.250000	0.002243	-2.508333	2.510576	-0.036243 	0.002016
-75.200000	0.002247	-2.506667	2.508914	-0.036156 	0.002017
-75.150000	0.002251	-2.505000	2.507251	-0.036068 	0.002017
-75.100000	0.002255	-2.503333	2.505588	-0.035980 	0.002018
-75.050000	0.002260	-2.501667	2.503927	-0.035891 	0.002019
-75.000000	0.002264	-2.500000	2.502264	-0.035802 	0.002019
-74.950000	0.002268	-2.498333	2.500601	-0.035712 	0.002020
-74.900000	0.002272	-2.496667	2.498939	-0.035622 	0.002021
-74.850000	0.002276	-2.495000	2.497276	-0.035532 	0.002021
-74.800000	0.002280	-2.493333	2.495613	-0.035441 	0.002022