VARIABLES = X,Ksi,B,H,U,tau 
ZONE T="Time 65.000000", I=2200, DATAPACKING=POINT
-100.000000	0.005794	-3.333333	3.339127	0.033957 	0.001748
-99.950000	0.005098	-3.331667	3.336765	0.035136 	0.001749
-99.900000	0.005357	-3.330000	3.335357	0.034674 	0.001749
-99.850000	0.005197	-3.328333	3.333530	0.034932 	0.001750
-99.800000	0.005221	-3.326667	3.331888	0.034874 	0.001750
-99.750000	0.005164	-3.325000	3.330164	0.034955 	0.001750
-99.700000	0.005143	-3.323333	3.328476	0.034974 	0.001751
-99.650000	0.005106	-3.321667	3.326773	0.035020 	0.001751
-99.600000	0.005076	-3.320000	3.325076	0.035055 	0.001752
-99.550000	0.005043	-3.318333	3.323376	0.035094 	0.001752
-99.500000	0.005011	-3.316667	3.321678	0.035131 	0.001753
-99.450000	0.004978	-3.315000	3.319978	0.035168 	0.001753
-99.400000	0.004946	-3.313333	3.318279	0.035206 	0.001754
-99.350000	0.004913	-3.311667	3.316580	0.035243 	0.001754
-99.300000	0.004881	-3.310000	3.314881	0.035280 	0.001754
-99.250000	0.004848	-3.308333	3.313181	0.035316 	0.001755
-99.200000	0.004816	-3.306667	3.311483	0.035353 	0.001755
-99.150000	0.004783	-3.305000	3.309783	0.035389 	0.001756
-99.100000	0.004751	-3.303333	3.308084	0.035426 	0.001756
-99.050000	0.004718	-3.301667	3.306385	0.035462 	0.001757
-99.000000	0.004685	-3.300000	3.304685	0.035498 	0.001757
-98.950000	0.004653	-3.298333	3.302986	0.035534 	0.001758
-98.900000	0.004620	-3.296667	3.301287	0.035569 	0.001758
-98.850000	0.004587	-3.295000	3.299587	0.035605 	0.001759
-98.800000	0.004554	-3.293333	3.297887	0.035640 	0.001759
-98.750000	0.004521	-3.291667	3.296188	0.035675 	0.001759
-98.700000	0.004488	-3.290000	3.294488	0.035711 	0.001760
-98.650000	0.004455	-3.288333	3.292788	0.035745 	0.001760
-98.600000	0.004422	-3.286667	3.291089	0.035780 	0.001761
-98.550000	0.004389	-3.285000	3.289389	0.035815 	0.001761
-98.500000	0.004356	-3.283333	3.287689	0.035849 	0.001762
-98.450000	0.004323	-3.281667	3.285990	0.035883 	0.001762
-98.400000	0.004290	-3.280000	3.284290	0.035918 	0.001763
-98.350000	0.004257	-3.278333	3.282590	0.035952 	0.001763
-98.300000	0.004224	-3.276667	3.280891	0.035986 	0.001764
-98.250000	0.004191	-3.275000	3.279191	0.036019 	0.001764
-98.200000	0.004158	-3.273333	3.277491	0.036053 	0.001764
-98.150000	0.004125	-3.271667	3.275792	0.036086 	0.001765
-98.100000	0.004091	-3.270000	3.274091	0.036119 	0.001765
-98.050000	0.004058	-3.268333	3.272391	0.036153 	0.001766
-98.000000	0.004025	-3.266667	3.270692	0.036185 	0.001766
-97.950000	0.003991	-3.265000	3.268991	0.036218 	0.001767
-97.900000	0.003958	-3.263333	3.267291	0.036251 	0.001767
-97.850000	0.003925	-3.261667	3.265592	0.036283 	0.001768
-97.800000	0.003891	-3.260000	3.263891	0.036315 	0.001768
-97.750000	0.003858	-3.258333	3.262191	0.036347 	0.001769
-97.700000	0.003824	-3.256667	3.260491	0.036379 	0.001769
-97.650000	0.003791	-3.255000	3.258791	0.036411 	0.001770
-97.600000	0.003757	-3.253333	3.257090	0.036443 	0.001770
-97.550000	0.003723	-3.251667	3.255390	0.036474 	0.001770
-97.500000	0.003690	-3.250000	3.253690	0.036505 	0.001771
-97.450000	0.003656	-3.248333	3.251989	0.036536 	0.001771
-97.400000	0.003622	-3.246667	3.250289	0.036567 	0.001772
-97.350000	0.003589	-3.245000	3.248589	0.036598 	0.001772
-97.300000	0.003555	-3.243333	3.246888	0.036629 	0.001773
-97.250000	0.003521	-3.241667	3.245188	0.036659 	0.001773
-97.200000	0.003487	-3.240000	3.243487	0.036689 	0.001774
-97.150000	0.003453	-3.238333	3.241786	0.036720 	0.001774
-97.100000	0.003420	-3.236667	3.240087	0.036749 	0.001775
-97.050000	0.003386	-3.235000	3.238386	0.036779 	0.001775
-97.000000	0.003352	-3.233333	3.236685	0.036809 	0.001776
-96.950000	0.003318	-3.231667	3.234985	0.036838 	0.001776
-96.900000	0.003284	-3.230000	3.233284	0.036867 	0.001776
-96.850000	0.003250	-3.228333	3.231583	0.036897 	0.001777
-96.800000	0.003216	-3.226667	3.229883	0.036925 	0.001777
-96.750000	0.003182	-3.225000	3.228182	0.036954 	0.001778
-96.700000	0.003148	-3.223333	3.226481	0.036983 	0.001778
-96.650000	0.003114	-3.221667	3.224781	0.037011 	0.001779
-96.600000	0.003079	-3.220000	3.223079	0.037039 	0.001779
-96.550000	0.003045	-3.218333	3.221378	0.037067 	0.001780
-96.500000	0.003011	-3.216667	3.219678	0.037095 	0.001780
-96.450000	0.002977	-3.215000	3.217977	0.037123 	0.001781
-96.400000	0.002943	-3.213333	3.216276	0.037150 	0.001781
-96.350000	0.002908	-3.211667	3.214575	0.037178 	0.001782
-96.300000	0.002874	-3.210000	3.212874	0.037205 	0.001782
-96.250000	0.002840	-3.208333	3.211173	0.037232 	0.001783
-96.200000	0.002805	-3.206667	3.209472	0.037259 	0.001783
-96.150000	0.002771	-3.205000	3.207771	0.037285 	0.001784
-96.100000	0.002737	-3.203333	3.206070	0.037312 	0.001784
-96.050000	0.002702	-3.201667	3.204369	0.037338 	0.001784
-96.000000	0.002668	-3.200000	3.202668	0.037364 	0.001785
-95.950000	0.002633	-3.198333	3.200966	0.037390 	0.001785
-95.900000	0.002599	-3.196667	3.199266	0.037416 	0.001786
-95.850000	0.002564	-3.195000	3.197564	0.037441 	0.001786
-95.800000	0.002530	-3.193333	3.195863	0.037466 	0.001787
-95.750000	0.002495	-3.191667	3.194162	0.037492 	0.001787
-95.700000	0.002460	-3.190000	3.192460	0.037517 	0.001788
-95.650000	0.002426	-3.188333	3.190759	0.037541 	0.001788
-95.600000	0.002391	-3.186667	3.189058	0.037566 	0.001789
-95.550000	0.002356	-3.185000	3.187356	0.037591 	0.001789
-95.500000	0.002322	-3.183333	3.185655	0.037615 	0.001790
-95.450000	0.002287	-3.181667	3.183954	0.037639 	0.001790
-95.400000	0.002252	-3.180000	3.182252	0.037663 	0.001791
-95.350000	0.002217	-3.178333	3.180550	0.037687 	0.001791
-95.300000	0.002183	-3.176667	3.178850	0.037710 	0.001792
-95.250000	0.002148	-3.175000	3.177148	0.037733 	0.001792
-95.200000	0.002113	-3.173333	3.175446	0.037757 	0.001793
-95.150000	0.002078	-3.171667	3.173745	0.037779 	0.001793
-95.100000	0.002043	-3.170000	3.172043	0.037802 	0.001794
-95.050000	0.002008	-3.168333	3.170341	0.037825 	0.001794
-95.000000	0.001973	-3.166667	3.168640	0.037847 	0.001795
-94.950000	0.001939	-3.165000	3.166939	0.037869 	0.001795
-94.900000	0.001904	-3.163333	3.165237	0.037891 	0.001795
-94.850000	0.001869	-3.161667	3.163536	0.037913 	0.001796
-94.800000	0.001834	-3.160000	3.161834	0.037935 	0.001796
-94.750000	0.001799	-3.158333	3.160132	0.037956 	0.001797
-94.700000	0.001763	-3.156667	3.158430	0.037978 	0.001797
-94.650000	0.001728	-3.155000	3.156728	0.037999 	0.001798
-94.600000	0.001693	-3.153333	3.155026	0.038020 	0.001798
-94.550000	0.001658	-3.151667	3.153325	0.038040 	0.001799
-94.500000	0.001623	-3.150000	3.151623	0.038061 	0.001799
-94.450000	0.001588	-3.148333	3.149921	0.038081 	0.001800
-94.400000	0.001553	-3.146667	3.148220	0.038101 	0.001800
-94.350000	0.001517	-3.145000	3.146517	0.038121 	0.001801
-94.300000	0.001482	-3.143333	3.144815	0.038141 	0.001801
-94.250000	0.001447	-3.141667	3.143114	0.038160 	0.001802
-94.200000	0.001412	-3.140000	3.141412	0.038180 	0.001802
-94.150000	0.001376	-3.138333	3.139709	0.038199 	0.001803
-94.100000	0.001341	-3.136667	3.138008	0.038218 	0.001803
-94.050000	0.001306	-3.135000	3.136306	0.038236 	0.001804
-94.000000	0.001271	-3.133333	3.134604	0.038255 	0.001804
-93.950000	0.001235	-3.131667	3.132902	0.038273 	0.001805
-93.900000	0.001200	-3.130000	3.131200	0.038291 	0.001805
-93.850000	0.001164	-3.128333	3.129497	0.038309 	0.001806
-93.800000	0.001129	-3.126667	3.127796	0.038327 	0.001806
-93.750000	0.001094	-3.125000	3.126094	0.038345 	0.001807
-93.700000	0.001058	-3.123333	3.124391	0.038362 	0.001807
-93.650000	0.001023	-3.121667	3.122690	0.038379 	0.001808
-93.600000	0.000987	-3.120000	3.120987	0.038396 	0.001808
-93.550000	0.000952	-3.118333	3.119285	0.038413 	0.001809
-93.500000	0.000916	-3.116667	3.117583	0.038429 	0.001809
-93.450000	0.000881	-3.115000	3.115881	0.038446 	0.001810
-93.400000	0.000845	-3.113333	3.114178	0.038462 	0.001810
-93.350000	0.000810	-3.111667	3.112477	0.038478 	0.001811
-93.300000	0.000774	-3.110000	3.110774	0.038493 	0.001811
-93.250000	0.000738	-3.108333	3.109071	0.038509 	0.001812
-93.200000	0.000703	-3.106667	3.107370	0.038524 	0.001812
-93.150000	0.000667	-3.105000	3.105667	0.038539 	0.001813
-93.100000	0.000632	-3.103333	3.103965	0.038554 	0.001813
-93.050000	0.000596	-3.101667	3.102263	0.038569 	0.001814
-93.000000	0.000560	-3.100000	3.100560	0.038583 	0.001814
-92.950000	0.000524	-3.098333	3.098857	0.038598 	0.001815
-92.900000	0.000489	-3.096667	3.097156	0.038612 	0.001815
-92.850000	0.000453	-3.095000	3.095453	0.038625 	0.001816
-92.800000	0.000417	-3.093333	3.093750	0.038639 	0.001816
-92.750000	0.000382	-3.091667	3.092049	0.038653 	0.001817
-92.700000	0.000346	-3.090000	3.090346	0.038666 	0.001817
-92.650000	0.000310	-3.088333	3.088643	0.038679 	0.001818
-92.600000	0.000274	-3.086667	3.086941	0.038692 	0.001818
-92.550000	0.000238	-3.085000	3.085238	0.038704 	0.001819
-92.500000	0.000203	-3.083333	3.083536	0.038717 	0.001819
-92.450000	0.000167	-3.081667	3.081834	0.038729 	0.001820
-92.400000	0.000131	-3.080000	3.080131	0.038741 	0.001820
-92.350000	0.000095	-3.078333	3.078428	0.038752 	0.001821
-92.300000	0.000059	-3.076667	3.076726	0.038764 	0.001821
-92.250000	0.000023	-3.075000	3.075023	0.038775 	0.001822
-92.200000	-0.000013	-3.073333	3.073320	0.038786 	0.001822
-92.150000	-0.000049	-3.071667	3.071618	0.038797 	0.001823
-92.100000	-0.000085	-3.070000	3.069915	0.038808 	0.001823
-92.050000	-0.000120	-3.068333	3.068213	0.038818 	0.001824
-92.000000	-0.000156	-3.066667	3.066511	0.038829 	0.001824
-91.950000	-0.000192	-3.065000	3.064808	0.038839 	0.001825
-91.900000	-0.000228	-3.063333	3.063105	0.038849 	0.001825
-91.850000	-0.000264	-3.061667	3.061403	0.038858 	0.001826
-91.800000	-0.000300	-3.060000	3.059700	0.038867 	0.001826
-91.750000	-0.000336	-3.058333	3.057997	0.038877 	0.001827
-91.700000	-0.000372	-3.056667	3.056295	0.038886 	0.001827
-91.650000	-0.000408	-3.055000	3.054592	0.038894 	0.001828
-91.600000	-0.000444	-3.053333	3.052889	0.038903 	0.001828
-91.550000	-0.000481	-3.051667	3.051186	0.038911 	0.001829
-91.500000	-0.000517	-3.050000	3.049483	0.038919 	0.001829
-91.450000	-0.000553	-3.048333	3.047780	0.038927 	0.001830
-91.400000	-0.000589	-3.046667	3.046078	0.038935 	0.001830
-91.350000	-0.000625	-3.045000	3.044375	0.038942 	0.001831
-91.300000	-0.000661	-3.043333	3.042672	0.038949 	0.001831
-91.250000	-0.000697	-3.041667	3.040970	0.038956 	0.001832
-91.200000	-0.000733	-3.040000	3.039267	0.038963 	0.001832
-91.150000	-0.000769	-3.038333	3.037564	0.038970 	0.001833
-91.100000	-0.000806	-3.036667	3.035861	0.038976 	0.001833
-91.050000	-0.000842	-3.035000	3.034158	0.038982 	0.001834
-91.000000	-0.000878	-3.033333	3.032455	0.038988 	0.001834
-90.950000	-0.000914	-3.031667	3.030753	0.038993 	0.001835
-90.900000	-0.000950	-3.030000	3.029050	0.038999 	0.001835
-90.850000	-0.000986	-3.028333	3.027347	0.039004 	0.001836
-90.800000	-0.001023	-3.026667	3.025644	0.039009 	0.001836
-90.750000	-0.001059	-3.025000	3.023941	0.039014 	0.001837
-90.700000	-0.001095	-3.023333	3.022238	0.039018 	0.001837
-90.650000	-0.001131	-3.021667	3.020536	0.039022 	0.001838
-90.600000	-0.001167	-3.020000	3.018833	0.039026 	0.001839
-90.550000	-0.001204	-3.018333	3.017129	0.039030 	0.001839
-90.500000	-0.001240	-3.016667	3.015427	0.039034 	0.001840
-90.450000	-0.001276	-3.015000	3.013724	0.039037 	0.001840
-90.400000	-0.001313	-3.013333	3.012020	0.039040 	0.001841
-90.350000	-0.001349	-3.011667	3.010318	0.039043 	0.001841
-90.300000	-0.001385	-3.010000	3.008615	0.039046 	0.001842
-90.250000	-0.001421	-3.008333	3.006912	0.039048 	0.001842
-90.200000	-0.001458	-3.006667	3.005209	0.039051 	0.001843
-90.150000	-0.001494	-3.005000	3.003506	0.039053 	0.001843
-90.100000	-0.001530	-3.003333	3.001803	0.039054 	0.001844
-90.050000	-0.001567	-3.001667	3.000100	0.039056 	0.001844
-90.000000	-0.001603	-3.000000	2.998397	0.039057 	0.001845
-89.950000	-0.001639	-2.998333	2.996694	0.039058 	0.001845
-89.900000	-0.001676	-2.996667	2.994991	0.039059 	0.001846
-89.850000	-0.001712	-2.995000	2.993288	0.039060 	0.001846
-89.800000	-0.001748	-2.993333	2.991585	0.039060 	0.001847
-89.750000	-0.001785	-2.991667	2.989882	0.039060 	0.001847
-89.700000	-0.001821	-2.990000	2.988179	0.039060 	0.001848
-89.650000	-0.001857	-2.988333	2.986476	0.039060 	0.001848
-89.600000	-0.001894	-2.986667	2.984773	0.039059 	0.001849
-89.550000	-0.001930	-2.985000	2.983070	0.039058 	0.001850
-89.500000	-0.001966	-2.983333	2.981367	0.039057 	0.001850
-89.450000	-0.002003	-2.981667	2.979664	0.039056 	0.001851
-89.400000	-0.002039	-2.980000	2.977961	0.039055 	0.001851
-89.350000	-0.002075	-2.978333	2.976258	0.039053 	0.001852
-89.300000	-0.002112	-2.976667	2.974555	0.039051 	0.001852
-89.250000	-0.002148	-2.975000	2.972852	0.039049 	0.001853
-89.200000	-0.002185	-2.973333	2.971148	0.039046 	0.001853
-89.150000	-0.002221	-2.971667	2.969446	0.039044 	0.001854
-89.100000	-0.002257	-2.970000	2.967743	0.039041 	0.001854
-89.050000	-0.002294	-2.968333	2.966039	0.039038 	0.001855
-89.000000	-0.002330	-2.966667	2.964337	0.039034 	0.001855
-88.950000	-0.002367	-2.965000	2.962633	0.039030 	0.001856
-88.900000	-0.002403	-2.963333	2.960930	0.039027 	0.001856
-88.850000	-0.002439	-2.961667	2.959228	0.039022 	0.001857
-88.800000	-0.002476	-2.960000	2.957524	0.039018 	0.001857
-88.750000	-0.002512	-2.958333	2.955821	0.039014 	0.001858
-88.700000	-0.002549	-2.956667	2.954118	0.039009 	0.001859
-88.650000	-0.002585	-2.955000	2.952415	0.039004 	0.001859
-88.600000	-0.002622	-2.953333	2.950711	0.038998 	0.001860
-88.550000	-0.002658	-2.951667	2.949009	0.038993 	0.001860
-88.500000	-0.002694	-2.950000	2.947306	0.038987 	0.001861
-88.450000	-0.002731	-2.948333	2.945602	0.038981 	0.001861
-88.400000	-0.002767	-2.946667	2.943900	0.038975 	0.001862
-88.350000	-0.002804	-2.945000	2.942196	0.038968 	0.001862
-88.300000	-0.002840	-2.943333	2.940493	0.038961 	0.001863
-88.250000	-0.002877	-2.941667	2.938790	0.038954 	0.001863
-88.200000	-0.002913	-2.940000	2.937087	0.038947 	0.001864
-88.150000	-0.002949	-2.938333	2.935384	0.038940 	0.001864
-88.100000	-0.002986	-2.936667	2.933681	0.038932 	0.001865
-88.050000	-0.003022	-2.935000	2.931978	0.038924 	0.001866
-88.000000	-0.003059	-2.933333	2.930274	0.038916 	0.001866
-87.950000	-0.003095	-2.931667	2.928572	0.038907 	0.001867
-87.900000	-0.003132	-2.930000	2.926868	0.038899 	0.001867
-87.850000	-0.003168	-2.928333	2.925165	0.038890 	0.001868
-87.800000	-0.003204	-2.926667	2.923463	0.038880 	0.001868
-87.750000	-0.003241	-2.925000	2.921759	0.038871 	0.001869
-87.700000	-0.003277	-2.923333	2.920056	0.038861 	0.001869
-87.650000	-0.003314	-2.921667	2.918353	0.038851 	0.001870
-87.600000	-0.003350	-2.920000	2.916650	0.038841 	0.001870
-87.550000	-0.003387	-2.918333	2.914946	0.038831 	0.001871
-87.500000	-0.003423	-2.916667	2.913244	0.038820 	0.001872
-87.450000	-0.003459	-2.915000	2.911541	0.038809 	0.001872
-87.400000	-0.003496	-2.913333	2.909837	0.038798 	0.001873
-87.350000	-0.003532	-2.911667	2.908135	0.038787 	0.001873
-87.300000	-0.003569	-2.910000	2.906431	0.038775 	0.001874
-87.250000	-0.003605	-2.908333	2.904728	0.038763 	0.001874
-87.200000	-0.003642	-2.906667	2.903025	0.038751 	0.001875
-87.150000	-0.003678	-2.905000	2.901322	0.038739 	0.001875
-87.100000	-0.003714	-2.903333	2.899619	0.038726 	0.001876
-87.050000	-0.003751	-2.901667	2.897916	0.038713 	0.001876
-87.000000	-0.003787	-2.900000	2.896213	0.038700 	0.001877
-86.950000	-0.003824	-2.898333	2.894509	0.038686 	0.001878
-86.900000	-0.003860	-2.896667	2.892807	0.038673 	0.001878
-86.850000	-0.003896	-2.895000	2.891104	0.038659 	0.001879
-86.800000	-0.003933	-2.893333	2.889400	0.038645 	0.001879
-86.750000	-0.003969	-2.891667	2.887698	0.038630 	0.001880
-86.700000	-0.004006	-2.890000	2.885994	0.038616 	0.001880
-86.650000	-0.004042	-2.888333	2.884291	0.038601 	0.001881
-86.600000	-0.004078	-2.886667	2.882589	0.038586 	0.001881
-86.550000	-0.004115	-2.885000	2.880885	0.038570 	0.001882
-86.500000	-0.004151	-2.883333	2.879182	0.038555 	0.001883
-86.450000	-0.004188	-2.881667	2.877479	0.038539 	0.001883
-86.400000	-0.004224	-2.880000	2.875776	0.038522 	0.001884
-86.350000	-0.004260	-2.878333	2.874073	0.038506 	0.001884
-86.300000	-0.004297	-2.876667	2.872370	0.038489 	0.001885
-86.250000	-0.004333	-2.875000	2.870667	0.038472 	0.001885
-86.200000	-0.004369	-2.873333	2.868964	0.038455 	0.001886
-86.150000	-0.004406	-2.871667	2.867261	0.038438 	0.001886
-86.100000	-0.004442	-2.870000	2.865558	0.038420 	0.001887
-86.050000	-0.004478	-2.868333	2.863855	0.038402 	0.001888
-86.000000	-0.004515	-2.866667	2.862152	0.038384 	0.001888
-85.950000	-0.004551	-2.865000	2.860449	0.038366 	0.001889
-85.900000	-0.004587	-2.863333	2.858746	0.038347 	0.001889
-85.850000	-0.004624	-2.861667	2.857043	0.038328 	0.001890
-85.800000	-0.004660	-2.860000	2.855340	0.038309 	0.001890
-85.750000	-0.004696	-2.858333	2.853637	0.038289 	0.001891
-85.700000	-0.004733	-2.856667	2.851934	0.038270 	0.001892
-85.650000	-0.004769	-2.855000	2.850231	0.038250 	0.001892
-85.600000	-0.004805	-2.853333	2.848528	0.038229 	0.001893
-85.550000	-0.004841	-2.851667	2.846826	0.038209 	0.001893
-85.500000	-0.004878	-2.850000	2.845122	0.038188 	0.001894
-85.450000	-0.004914	-2.848333	2.843419	0.038167 	0.001894
-85.400000	-0.004950	-2.846667	2.841717	0.038146 	0.001895
-85.350000	-0.004986	-2.845000	2.840014	0.038125 	0.001896
-85.300000	-0.005023	-2.843333	2.838310	0.038103 	0.001896
-85.250000	-0.005059	-2.841667	2.836608	0.038081 	0.001897
-85.200000	-0.005095	-2.840000	2.834905	0.038059 	0.001897
-85.150000	-0.005131	-2.838333	2.833202	0.038036 	0.001898
-85.100000	-0.005167	-2.836667	2.831500	0.038013 	0.001898
-85.050000	-0.005204	-2.835000	2.829796	0.037990 	0.001899
-85.000000	-0.005240	-2.833333	2.828093	0.037967 	0.001900
-84.950000	-0.005276	-2.831667	2.826391	0.037943 	0.001900
-84.900000	-0.005312	-2.830000	2.824688	0.037920 	0.001901
-84.850000	-0.005348	-2.828333	2.822985	0.037896 	0.001901
-84.800000	-0.005384	-2.826667	2.821283	0.037871 	0.001902
-84.750000	-0.005421	-2.825000	2.819579	0.037847 	0.001902
-84.700000	-0.005457	-2.823333	2.817876	0.037822 	0.001903
-84.650000	-0.005493	-2.821667	2.816174	0.037797 	0.001904
-84.600000	-0.005529	-2.820000	2.814471	0.037771 	0.001904
-84.550000	-0.005565	-2.818333	2.812768	0.037746 	0.001905
-84.500000	-0.005601	-2.816667	2.811066	0.037720 	0.001905
-84.450000	-0.005637	-2.815000	2.809363	0.037694 	0.001906
-84.400000	-0.005673	-2.813333	2.807660	0.037667 	0.001906
-84.350000	-0.005709	-2.811667	2.805958	0.037641 	0.001907
-84.300000	-0.005746	-2.810000	2.804254	0.037614 	0.001908
-84.250000	-0.005782	-2.808333	2.802551	0.037587 	0.001908
-84.200000	-0.005818	-2.806667	2.800849	0.037559 	0.001909
-84.150000	-0.005854	-2.805000	2.799146	0.037531 	0.001909
-84.100000	-0.005890	-2.803333	2.797443	0.037504 	0.001910
-84.050000	-0.005926	-2.801667	2.795741	0.037475 	0.001910
-84.000000	-0.005962	-2.800000	2.794038	0.037447 	0.001911
-83.950000	-0.005998	-2.798333	2.792335	0.037418 	0.001912
-83.900000	-0.006034	-2.796667	2.790633	0.037389 	0.001912
-83.850000	-0.006070	-2.795000	2.788930	0.037360 	0.001913
-83.800000	-0.006106	-2.793333	2.787227	0.037330 	0.001913
-83.750000	-0.006141	-2.791667	2.785526	0.037301 	0.001914
-83.700000	-0.006177	-2.790000	2.783823	0.037270 	0.001915
-83.650000	-0.006213	-2.788333	2.782120	0.037240 	0.001915
-83.600000	-0.006249	-2.786667	2.780418	0.037210 	0.001916
-83.550000	-0.006285	-2.785000	2.778715	0.037179 	0.001916
-83.500000	-0.006321	-2.783333	2.777012	0.037148 	0.001917
-83.450000	-0.006357	-2.781667	2.775310	0.037116 	0.001917
-83.400000	-0.006393	-2.780000	2.773607	0.037085 	0.001918
-83.350000	-0.006428	-2.778333	2.771905	0.037053 	0.001919
-83.300000	-0.006464	-2.776667	2.770203	0.037021 	0.001919
-83.250000	-0.006500	-2.775000	2.768500	0.036988 	0.001920
-83.200000	-0.006536	-2.773333	2.766797	0.036956 	0.001920
-83.150000	-0.006572	-2.771667	2.765095	0.036923 	0.001921
-83.100000	-0.006607	-2.770000	2.763393	0.036890 	0.001922
-83.050000	-0.006643	-2.768333	2.761690	0.036856 	0.001922
-83.000000	-0.006679	-2.766667	2.759988	0.036822 	0.001923
-82.950000	-0.006715	-2.765000	2.758285	0.036788 	0.001923
-82.900000	-0.006750	-2.763333	2.756583	0.036754 	0.001924
-82.850000	-0.006786	-2.761667	2.754881	0.036720 	0.001925
-82.800000	-0.006822	-2.760000	2.753178	0.036685 	0.001925
-82.750000	-0.006857	-2.758333	2.751476	0.036650 	0.001926
-82.700000	-0.006893	-2.756667	2.749774	0.036615 	0.001926
-82.650000	-0.006929	-2.755000	2.748071	0.036579 	0.001927
-82.600000	-0.006964	-2.753333	2.746369	0.036543 	0.001928
-82.550000	-0.007000	-2.751667	2.744667	0.036507 	0.001928
-82.500000	-0.007035	-2.750000	2.742965	0.036471 	0.001929
-82.450000	-0.007071	-2.748333	2.741262	0.036434 	0.001929
-82.400000	-0.007107	-2.746667	2.739560	0.036397 	0.001930
-82.350000	-0.007142	-2.745000	2.737858	0.036360 	0.001931
-82.300000	-0.007178	-2.743333	2.736155	0.036323 	0.001931
-82.250000	-0.007213	-2.741667	2.734454	0.036285 	0.001932
-82.200000	-0.007249	-2.740000	2.732751	0.036247 	0.001932
-82.150000	-0.007284	-2.738333	2.731049	0.036209 	0.001933
-82.100000	-0.007319	-2.736667	2.729348	0.036170 	0.001934
-82.050000	-0.007355	-2.735000	2.727645	0.036132 	0.001934
-82.000000	-0.007390	-2.733333	2.725943	0.036093 	0.001935
-81.950000	-0.007426	-2.731667	2.724241	0.036053 	0.001935
-81.900000	-0.007461	-2.730000	2.722539	0.036014 	0.001936
-81.850000	-0.007496	-2.728333	2.720837	0.035974 	0.001937
-81.800000	-0.007532	-2.726667	2.719135	0.035934 	0.001937
-81.750000	-0.007567	-2.725000	2.717433	0.035894 	0.001938
-81.700000	-0.007602	-2.723333	2.715731	0.035853 	0.001938
-81.650000	-0.007638	-2.721667	2.714029	0.035812 	0.001939
-81.600000	-0.007673	-2.720000	2.712327	0.035771 	0.001940
-81.550000	-0.007708	-2.718333	2.710625	0.035729 	0.001940
-81.500000	-0.007743	-2.716667	2.708924	0.035688 	0.001941
-81.450000	-0.007779	-2.715000	2.707221	0.035646 	0.001941
-81.400000	-0.007814	-2.713333	2.705519	0.035604 	0.001942
-81.350000	-0.007849	-2.711667	2.703818	0.035561 	0.001943
-81.300000	-0.007884	-2.710000	2.702116	0.035518 	0.001943
-81.250000	-0.007919	-2.708333	2.700414	0.035475 	0.001944
-81.200000	-0.007954	-2.706667	2.698713	0.035432 	0.001945
-81.150000	-0.007989	-2.705000	2.697011	0.035389 	0.001945
-81.100000	-0.008024	-2.703333	2.695309	0.035345 	0.001946
-81.050000	-0.008059	-2.701667	2.693608	0.035301 	0.001946
-81.000000	-0.008094	-2.700000	2.691906	0.035256 	0.001947
-80.950000	-0.008129	-2.698333	2.690204	0.035212 	0.001948
-80.900000	-0.008164	-2.696667	2.688503	0.035167 	0.001948
-80.850000	-0.008199	-2.695000	2.686801	0.035122 	0.001949
-80.800000	-0.008234	-2.693333	2.685099	0.035076 	0.001949
-80.750000	-0.008269	-2.691667	2.683398	0.035030 	0.001950
-80.700000	-0.008304	-2.690000	2.681696	0.034984 	0.001951
-80.650000	-0.008339	-2.688333	2.679994	0.034938 	0.001951
-80.600000	-0.008374	-2.686667	2.678293	0.034892 	0.001952
-80.550000	-0.008409	-2.685000	2.676591	0.034845 	0.001953
-80.500000	-0.008443	-2.683333	2.674890	0.034798 	0.001953
-80.450000	-0.008478	-2.681667	2.673189	0.034751 	0.001954
-80.400000	-0.008513	-2.680000	2.671487	0.034703 	0.001954
-80.350000	-0.008548	-2.678333	2.669785	0.034655 	0.001955
-80.300000	-0.008582	-2.676667	2.668085	0.034607 	0.001956
-80.250000	-0.008617	-2.675000	2.666383	0.034559 	0.001956
-80.200000	-0.008651	-2.673333	2.664682	0.034510 	0.001957
-80.150000	-0.008686	-2.671667	2.662981	0.034461 	0.001958
-80.100000	-0.008721	-2.670000	2.661279	0.034412 	0.001958
-80.050000	-0.008755	-2.668333	2.659578	0.034362 	0.001959
-80.000000	-0.008790	-2.666667	2.657877	0.034313 	0.001959
-79.950000	-0.008824	-2.665000	2.656176	0.034263 	0.001960
-79.900000	-0.008859	-2.663333	2.654474	0.034212 	0.001961
-79.850000	-0.008893	-2.661667	2.652774	0.034162 	0.001961
-79.800000	-0.008928	-2.660000	2.651072	0.034111 	0.001962
-79.750000	-0.008962	-2.658333	2.649371	0.034060 	0.001963
-79.700000	-0.008996	-2.656667	2.647671	0.034008 	0.001963
-79.650000	-0.009031	-2.655000	2.645969	0.033957 	0.001964
-79.600000	-0.009065	-2.653333	2.644268	0.033905 	0.001964
-79.550000	-0.009099	-2.651667	2.642568	0.033853 	0.001965
-79.500000	-0.009133	-2.650000	2.640867	0.033800 	0.001966
-79.450000	-0.009168	-2.648333	2.639165	0.033748 	0.001966
-79.400000	-0.009202	-2.646667	2.637465	0.033695 	0.001967
-79.350000	-0.009236	-2.645000	2.635764	0.033641 	0.001968
-79.300000	-0.009270	-2.643333	2.634063	0.033588 	0.001968
-79.250000	-0.009304	-2.641667	2.632363	0.033534 	0.001969
-79.200000	-0.009338	-2.640000	2.630662	0.033480 	0.001969
-79.150000	-0.009372	-2.638333	2.628961	0.033425 	0.001970
-79.100000	-0.009406	-2.636667	2.627261	0.033371 	0.001971
-79.050000	-0.009440	-2.635000	2.625560	0.033316 	0.001971
-79.000000	-0.009474	-2.633333	2.623859	0.033261 	0.001972
-78.950000	-0.009508	-2.631667	2.622159	0.033205 	0.001973
-78.900000	-0.009542	-2.630000	2.620458	0.033149 	0.001973
-78.850000	-0.009576	-2.628333	2.618757	0.033093 	0.001974
-78.800000	-0.009610	-2.626667	2.617057	0.033037 	0.001975
-78.750000	-0.009644	-2.625000	2.615356	0.032981 	0.001975
-78.700000	-0.009677	-2.623333	2.613656	0.032924 	0.001976
-78.650000	-0.009711	-2.621667	2.611956	0.032867 	0.001977
-78.600000	-0.009745	-2.620000	2.610255	0.032809 	0.001977
-78.550000	-0.009778	-2.618333	2.608555	0.032752 	0.001978
-78.500000	-0.009812	-2.616667	2.606855	0.032694 	0.001978
-78.450000	-0.009846	-2.615000	2.605154	0.032636 	0.001979
-78.400000	-0.009879	-2.613333	2.603454	0.032577 	0.001980
-78.350000	-0.009913	-2.611667	2.601754	0.032518 	0.001980
-78.300000	-0.009946	-2.610000	2.600054	0.032459 	0.001981
-78.250000	-0.009980	-2.608333	2.598353	0.032400 	0.001982
-78.200000	-0.010013	-2.606667	2.596654	0.032340 	0.001982
-78.150000	-0.010046	-2.605000	2.594954	0.032281 	0.001983
-78.100000	-0.010080	-2.603333	2.593253	0.032221 	0.001984
-78.050000	-0.010113	-2.601667	2.591554	0.032160 	0.001984
-78.000000	-0.010146	-2.600000	2.589854	0.032099 	0.001985
-77.950000	-0.010180	-2.598333	2.588153	0.032039 	0.001986
-77.900000	-0.010213	-2.596667	2.586454	0.031977 	0.001986
-77.850000	-0.010246	-2.595000	2.584754	0.031916 	0.001987
-77.800000	-0.010279	-2.593333	2.583054	0.031854 	0.001988
-77.750000	-0.010312	-2.591667	2.581355	0.031792 	0.001988
-77.700000	-0.010345	-2.590000	2.579655	0.031730 	0.001989
-77.650000	-0.010378	-2.588333	2.577955	0.031667 	0.001990
-77.600000	-0.010411	-2.586667	2.576256	0.031604 	0.001990
-77.550000	-0.010444	-2.585000	2.574556	0.031541 	0.001991
-77.500000	-0.010477	-2.583333	2.572856	0.031478 	0.001991
-77.450000	-0.010510	-2.581667	2.571157	0.031414 	0.001992
-77.400000	-0.010543	-2.580000	2.569457	0.031350 	0.001993
-77.350000	-0.010575	-2.578333	2.567758	0.031286 	0.001993
-77.300000	-0.010608	-2.576667	2.566059	0.031221 	0.001994
-77.250000	-0.010641	-2.575000	2.564359	0.031156 	0.001995
-77.200000	-0.010673	-2.573333	2.562660	0.031091 	0.001995
-77.150000	-0.010706	-2.571667	2.560961	0.031026 	0.001996
-77.100000	-0.010739	-2.570000	2.559261	0.030960 	0.001997
-77.050000	-0.010771	-2.568333	2.557562	0.030894 	0.001997
-77.000000	-0.010804	-2.566667	2.555863	0.030828 	0.001998
-76.950000	-0.010836	-2.565000	2.554164	0.030762 	0.001999
-76.900000	-0.010868	-2.563333	2.552465	0.030695 	0.001999
-76.850000	-0.010901	-2.561667	2.550766	0.030628 	0.002000
-76.800000	-0.010933	-2.560000	2.549067	0.030561 	0.002001
-76.750000	-0.010965	-2.558333	2.547368	0.030493 	0.002001
-76.700000	-0.010998	-2.556667	2.545669	0.030425 	0.002002
-76.650000	-0.011030	-2.555000	2.543970	0.030357 	0.002003
-76.600000	-0.011062	-2.553333	2.542271	0.030289 	0.002003
-76.550000	-0.011094	-2.551667	2.540573	0.030220 	0.002004
-76.500000	-0.011126	-2.550000	2.538874	0.030151 	0.002005
-76.450000	-0.011158	-2.548333	2.537175	0.030082 	0.002005
-76.400000	-0.011190	-2.546667	2.535477	0.030012 	0.002006
-76.350000	-0.011222	-2.545000	2.533778	0.029942 	0.002007
-76.300000	-0.011254	-2.543333	2.532079	0.029872 	0.002007
-76.250000	-0.011285	-2.541667	2.530382	0.029802 	0.002008
-76.200000	-0.011317	-2.540000	2.528683	0.029731 	0.002009
-76.150000	-0.011349	-2.538333	2.526984	0.029660 	0.002009
-76.100000	-0.011381	-2.536667	2.525286	0.029589 	0.002010
-76.050000	-0.011412	-2.535000	2.523588	0.029518 	0.002011
-76.000000	-0.011444	-2.533333	2.521889	0.029446 	0.002012
-75.950000	-0.011475	-2.531667	2.520192	0.029374 	0.002012
-75.900000	-0.011507	-2.530000	2.518493	0.029302 	0.002013
-75.850000	-0.011538	-2.528333	2.516795	0.029229 	0.002014
-75.800000	-0.011569	-2.526667	2.515098	0.029156 	0.002014
-75.750000	-0.011601	-2.525000	2.513399	0.029083 	0.002015
-75.700000	-0.011632	-2.523333	2.511701	0.029010 	0.002016
-75.650000	-0.011663	-2.521667	2.510004	0.028936 	0.002016
-75.600000	-0.011694	-2.520000	2.508306	0.028862 	0.002017
-75.550000	-0.011725	-2.518333	2.506608	0.028788 	0.002018
-75.500000	-0.011757	-2.516667	2.504910	0.028713 	0.002018
-75.450000	-0.011788	-2.515000	2.503212	0.028638 	0.002019
-75.400000	-0.011818	-2.513333	2.501515	0.028563 	0.002020
-75.350000	-0.011849	-2.511667	2.499818	0.028488 	0.002020
-75.300000	-0.011880	-2.510000	2.498120	0.028412 	0.002021
-75.250000	-0.011911	-2.508333	2.496422	0.028336 	0.002022
-75.200000	-0.011942	-2.506667	2.494725	0.028260 	0.002022
-75.150000	-0.011972	-2.505000	2.493028	0.028184 	0.002023
-75.100000	-0.012003	-2.503333	2.491330	0.028107 	0.002024
-75.050000	-0.012034	-2.501667	2.489633	0.028030 	0.002025
-75.000000	-0.012064	-2.500000	2.487936	0.027952 	0.002025
-74.950000	-0.012095	-2.498333	2.486238	0.027875 	0.002026
-74.900000	-0.012125	-2.496667	2.484542	0.027797 	0.002027
-74.850000	-0.012155	-2.495000	2.482845	0.027719 	0.002027
-74.800000	-0.012186	-2.493333	2.481147	0.027640 	0.002028
-74.750000	-0.012216	-2.491667	2.479451	0.027561 	0.002029
-74.700000	-0.012246	-2.490000	2.477754	0.027482 	0.002029
-74.650000	-0.012276	-2.488333	2.476057	0.027403 	0.002030
-74.600000	-0.012306	-2.486667	2.474361	0.027324 	0.002031