VARIABLES = X,Ksi,B,H,U,tau 
ZONE T="Time 15.000000", I=2200, DATAPACKING=POINT
-100.000000	0.007725	-3.333333	3.341058	0.026474 	0.001748
-99.950000	0.005756	-3.331667	3.337423	0.029808 	0.001749
-99.900000	0.006542	-3.330000	3.336542	0.028423 	0.001749
-99.850000	0.006141	-3.328333	3.334474	0.029070 	0.001749
-99.800000	0.006251	-3.326667	3.332918	0.028842 	0.001750
-99.750000	0.006141	-3.325000	3.331141	0.028990 	0.001750
-99.700000	0.006126	-3.323333	3.329459	0.028977 	0.001751
-99.650000	0.006069	-3.321667	3.327736	0.029032 	0.001751
-99.600000	0.006031	-3.320000	3.326031	0.029058 	0.001752
-99.550000	0.005984	-3.318333	3.324317	0.029097 	0.001752
-99.500000	0.005941	-3.316667	3.322608	0.029130 	0.001752
-99.450000	0.005897	-3.315000	3.320897	0.029165 	0.001753
-99.400000	0.005853	-3.313333	3.319186	0.029199 	0.001753
-99.350000	0.005808	-3.311667	3.317475	0.029233 	0.001754
-99.300000	0.005764	-3.310000	3.315764	0.029267 	0.001754
-99.250000	0.005720	-3.308333	3.314053	0.029301 	0.001755
-99.200000	0.005676	-3.306667	3.312343	0.029335 	0.001755
-99.150000	0.005631	-3.305000	3.310631	0.029369 	0.001756
-99.100000	0.005587	-3.303333	3.308920	0.029402 	0.001756
-99.050000	0.005542	-3.301667	3.307209	0.029436 	0.001757
-99.000000	0.005498	-3.300000	3.305498	0.029469 	0.001757
-98.950000	0.005453	-3.298333	3.303786	0.029502 	0.001757
-98.900000	0.005408	-3.296667	3.302075	0.029535 	0.001758
-98.850000	0.005364	-3.295000	3.300364	0.029568 	0.001758
-98.800000	0.005319	-3.293333	3.298652	0.029601 	0.001759
-98.750000	0.005274	-3.291667	3.296941	0.029634 	0.001759
-98.700000	0.005229	-3.290000	3.295229	0.029667 	0.001760
-98.650000	0.005184	-3.288333	3.293517	0.029699 	0.001760
-98.600000	0.005139	-3.286667	3.291806	0.029731 	0.001761
-98.550000	0.005094	-3.285000	3.290094	0.029764 	0.001761
-98.500000	0.005049	-3.283333	3.288382	0.029796 	0.001762
-98.450000	0.005004	-3.281667	3.286671	0.029828 	0.001762
-98.400000	0.004959	-3.280000	3.284959	0.029860 	0.001762
-98.350000	0.004914	-3.278333	3.283247	0.029892 	0.001763
-98.300000	0.004869	-3.276667	3.281536	0.029923 	0.001763
-98.250000	0.004823	-3.275000	3.279823	0.029955 	0.001764
-98.200000	0.004778	-3.273333	3.278111	0.029986 	0.001764
-98.150000	0.004733	-3.271667	3.276400	0.030017 	0.001765
-98.100000	0.004687	-3.270000	3.274687	0.030049 	0.001765
-98.050000	0.004642	-3.268333	3.272975	0.030080 	0.001766
-98.000000	0.004596	-3.266667	3.271263	0.030110 	0.001766
-97.950000	0.004551	-3.265000	3.269551	0.030141 	0.001767
-97.900000	0.004505	-3.263333	3.267838	0.030172 	0.001767
-97.850000	0.004460	-3.261667	3.266127	0.030202 	0.001768
-97.800000	0.004414	-3.260000	3.264414	0.030233 	0.001768
-97.750000	0.004368	-3.258333	3.262701	0.030263 	0.001768
-97.700000	0.004322	-3.256667	3.260989	0.030293 	0.001769
-97.650000	0.004277	-3.255000	3.259277	0.030323 	0.001769
-97.600000	0.004231	-3.253333	3.257564	0.030353 	0.001770
-97.550000	0.004185	-3.251667	3.255852	0.030382 	0.001770
-97.500000	0.004139	-3.250000	3.254139	0.030412 	0.001771
-97.450000	0.004093	-3.248333	3.252426	0.030442 	0.001771
-97.400000	0.004047	-3.246667	3.250714	0.030471 	0.001772
-97.350000	0.004001	-3.245000	3.249001	0.030500 	0.001772
-97.300000	0.003955	-3.243333	3.247288	0.030529 	0.001773
-97.250000	0.003909	-3.241667	3.245576	0.030558 	0.001773
-97.200000	0.003862	-3.240000	3.243862	0.030587 	0.001774
-97.150000	0.003816	-3.238333	3.242149	0.030615 	0.001774
-97.100000	0.003770	-3.236667	3.240437	0.030644 	0.001775
-97.050000	0.003724	-3.235000	3.238724	0.030672 	0.001775
-97.000000	0.003677	-3.233333	3.237010	0.030701 	0.001775
-96.950000	0.003631	-3.231667	3.235298	0.030729 	0.001776
-96.900000	0.003584	-3.230000	3.233584	0.030757 	0.001776
-96.850000	0.003538	-3.228333	3.231871	0.030785 	0.001777
-96.800000	0.003491	-3.226667	3.230158	0.030812 	0.001777
-96.750000	0.003445	-3.225000	3.228445	0.030840 	0.001778
-96.700000	0.003398	-3.223333	3.226731	0.030867 	0.001778
-96.650000	0.003352	-3.221667	3.225019	0.030895 	0.001779
-96.600000	0.003305	-3.220000	3.223305	0.030922 	0.001779
-96.550000	0.003258	-3.218333	3.221591	0.030949 	0.001780
-96.500000	0.003212	-3.216667	3.219879	0.030976 	0.001780
-96.450000	0.003165	-3.215000	3.218165	0.031002 	0.001781
-96.400000	0.003118	-3.213333	3.216451	0.031029 	0.001781
-96.350000	0.003071	-3.211667	3.214738	0.031055 	0.001782
-96.300000	0.003024	-3.210000	3.213024	0.031082 	0.001782
-96.250000	0.002977	-3.208333	3.211310	0.031108 	0.001783
-96.200000	0.002930	-3.206667	3.209597	0.031134 	0.001783
-96.150000	0.002883	-3.205000	3.207883	0.031160 	0.001784
-96.100000	0.002836	-3.203333	3.206169	0.031185 	0.001784
-96.050000	0.002789	-3.201667	3.204456	0.031211 	0.001784
-96.000000	0.002742	-3.200000	3.202742	0.031237 	0.001785
-95.950000	0.002695	-3.198333	3.201028	0.031262 	0.001785
-95.900000	0.002648	-3.196667	3.199315	0.031287 	0.001786
-95.850000	0.002600	-3.195000	3.197600	0.031312 	0.001786
-95.800000	0.002553	-3.193333	3.195886	0.031337 	0.001787
-95.750000	0.002506	-3.191667	3.194173	0.031362 	0.001787
-95.700000	0.002458	-3.190000	3.192458	0.031386 	0.001788
-95.650000	0.002411	-3.188333	3.190744	0.031411 	0.001788
-95.600000	0.002364	-3.186667	3.189031	0.031435 	0.001789
-95.550000	0.002316	-3.185000	3.187316	0.031459 	0.001789
-95.500000	0.002269	-3.183333	3.185602	0.031483 	0.001790
-95.450000	0.002221	-3.181667	3.183888	0.031507 	0.001790
-95.400000	0.002174	-3.180000	3.182174	0.031531 	0.001791
-95.350000	0.002126	-3.178333	3.180459	0.031554 	0.001791
-95.300000	0.002078	-3.176667	3.178745	0.031578 	0.001792
-95.250000	0.002031	-3.175000	3.177031	0.031601 	0.001792
-95.200000	0.001983	-3.173333	3.175316	0.031624 	0.001793
-95.150000	0.001935	-3.171667	3.173602	0.031647 	0.001793
-95.100000	0.001888	-3.170000	3.171888	0.031670 	0.001794
-95.050000	0.001840	-3.168333	3.170173	0.031692 	0.001794
-95.000000	0.001792	-3.166667	3.168459	0.031715 	0.001795
-94.950000	0.001744	-3.165000	3.166744	0.031737 	0.001795
-94.900000	0.001696	-3.163333	3.165029	0.031759 	0.001796
-94.850000	0.001648	-3.161667	3.163315	0.031781 	0.001796
-94.800000	0.001601	-3.160000	3.161601	0.031803 	0.001797
-94.750000	0.001553	-3.158333	3.159886	0.031825 	0.001797
-94.700000	0.001505	-3.156667	3.158172	0.031847 	0.001798
-94.650000	0.001456	-3.155000	3.156456	0.031868 	0.001798
-94.600000	0.001408	-3.153333	3.154741	0.031889 	0.001798
-94.550000	0.001360	-3.151667	3.153027	0.031910 	0.001799
-94.500000	0.001312	-3.150000	3.151312	0.031931 	0.001799
-94.450000	0.001264	-3.148333	3.149597	0.031952 	0.001800
-94.400000	0.001216	-3.146667	3.147883	0.031973 	0.001800
-94.350000	0.001168	-3.145000	3.146168	0.031993 	0.001801
-94.300000	0.001119	-3.143333	3.144452	0.032014 	0.001801
-94.250000	0.001071	-3.141667	3.142738	0.032034 	0.001802
-94.200000	0.001023	-3.140000	3.141023	0.032054 	0.001802
-94.150000	0.000975	-3.138333	3.139308	0.032074 	0.001803
-94.100000	0.000926	-3.136667	3.137593	0.032093 	0.001803
-94.050000	0.000878	-3.135000	3.135878	0.032113 	0.001804
-94.000000	0.000829	-3.133333	3.134162	0.032132 	0.001804
-93.950000	0.000781	-3.131667	3.132448	0.032152 	0.001805
-93.900000	0.000733	-3.130000	3.130733	0.032171 	0.001805
-93.850000	0.000684	-3.128333	3.129017	0.032190 	0.001806
-93.800000	0.000635	-3.126667	3.127302	0.032208 	0.001806
-93.750000	0.000587	-3.125000	3.125587	0.032227 	0.001807
-93.700000	0.000538	-3.123333	3.123871	0.032245 	0.001807
-93.650000	0.000490	-3.121667	3.122157	0.032264 	0.001808
-93.600000	0.000441	-3.120000	3.120441	0.032282 	0.001808
-93.550000	0.000392	-3.118333	3.118725	0.032300 	0.001809
-93.500000	0.000344	-3.116667	3.117011	0.032317 	0.001809
-93.450000	0.000295	-3.115000	3.115295	0.032335 	0.001810
-93.400000	0.000246	-3.113333	3.113579	0.032352 	0.001810
-93.350000	0.000198	-3.111667	3.111865	0.032370 	0.001811
-93.300000	0.000149	-3.110000	3.110149	0.032387 	0.001811
-93.250000	0.000100	-3.108333	3.108433	0.032404 	0.001812
-93.200000	0.000051	-3.106667	3.106718	0.032420 	0.001812
-93.150000	0.000002	-3.105000	3.105002	0.032437 	0.001813
-93.100000	-0.000046	-3.103333	3.103287	0.032454 	0.001813
-93.050000	-0.000095	-3.101667	3.101572	0.032470 	0.001814
-93.000000	-0.000144	-3.100000	3.099856	0.032486 	0.001814
-92.950000	-0.000193	-3.098333	3.098140	0.032502 	0.001815
-92.900000	-0.000242	-3.096667	3.096425	0.032518 	0.001815
-92.850000	-0.000291	-3.095000	3.094709	0.032533 	0.001816
-92.800000	-0.000340	-3.093333	3.092993	0.032549 	0.001816
-92.750000	-0.000389	-3.091667	3.091278	0.032564 	0.001817
-92.700000	-0.000438	-3.090000	3.089562	0.032579 	0.001817
-92.650000	-0.000487	-3.088333	3.087846	0.032594 	0.001818
-92.600000	-0.000536	-3.086667	3.086131	0.032609 	0.001818
-92.550000	-0.000586	-3.085000	3.084414	0.032623 	0.001819
-92.500000	-0.000635	-3.083333	3.082698	0.032638 	0.001819
-92.450000	-0.000684	-3.081667	3.080983	0.032652 	0.001820
-92.400000	-0.000733	-3.080000	3.079267	0.032666 	0.001820
-92.350000	-0.000782	-3.078333	3.077551	0.032680 	0.001821
-92.300000	-0.000831	-3.076667	3.075836	0.032694 	0.001821
-92.250000	-0.000881	-3.075000	3.074119	0.032707 	0.001822
-92.200000	-0.000930	-3.073333	3.072403	0.032721 	0.001822
-92.150000	-0.000979	-3.071667	3.070688	0.032734 	0.001823
-92.100000	-0.001028	-3.070000	3.068972	0.032747 	0.001823
-92.050000	-0.001078	-3.068333	3.067255	0.032760 	0.001824
-92.000000	-0.001127	-3.066667	3.065540	0.032772 	0.001824
-91.950000	-0.001176	-3.065000	3.063824	0.032785 	0.001825
-91.900000	-0.001226	-3.063333	3.062107	0.032797 	0.001825
-91.850000	-0.001275	-3.061667	3.060392	0.032809 	0.001826
-91.800000	-0.001325	-3.060000	3.058675	0.032821 	0.001827
-91.750000	-0.001374	-3.058333	3.056959	0.032833 	0.001827
-91.700000	-0.001423	-3.056667	3.055244	0.032845 	0.001828
-91.650000	-0.001473	-3.055000	3.053527	0.032856 	0.001828
-91.600000	-0.001522	-3.053333	3.051811	0.032867 	0.001829
-91.550000	-0.001572	-3.051667	3.050095	0.032878 	0.001829
-91.500000	-0.001621	-3.050000	3.048379	0.032889 	0.001830
-91.450000	-0.001671	-3.048333	3.046662	0.032900 	0.001830
-91.400000	-0.001720	-3.046667	3.044947	0.032911 	0.001831
-91.350000	-0.001770	-3.045000	3.043230	0.032921 	0.001831
-91.300000	-0.001819	-3.043333	3.041514	0.032931 	0.001832
-91.250000	-0.001869	-3.041667	3.039798	0.032941 	0.001832
-91.200000	-0.001918	-3.040000	3.038082	0.032951 	0.001833
-91.150000	-0.001968	-3.038333	3.036365	0.032961 	0.001833
-91.100000	-0.002018	-3.036667	3.034649	0.032970 	0.001834
-91.050000	-0.002067	-3.035000	3.032933	0.032979 	0.001834
-91.000000	-0.002117	-3.033333	3.031216	0.032988 	0.001835
-90.950000	-0.002167	-3.031667	3.029500	0.032997 	0.001835
-90.900000	-0.002216	-3.030000	3.027784	0.033006 	0.001836
-90.850000	-0.002266	-3.028333	3.026067	0.033015 	0.001836
-90.800000	-0.002315	-3.026667	3.024352	0.033023 	0.001837
-90.750000	-0.002365	-3.025000	3.022635	0.033031 	0.001837
-90.700000	-0.002415	-3.023333	3.020918	0.033039 	0.001838
-90.650000	-0.002465	-3.021667	3.019202	0.033047 	0.001838
-90.600000	-0.002514	-3.020000	3.017486	0.033055 	0.001839
-90.550000	-0.002564	-3.018333	3.015769	0.033062 	0.001839
-90.500000	-0.002614	-3.016667	3.014053	0.033069 	0.001840
-90.450000	-0.002664	-3.015000	3.012336	0.033076 	0.001840
-90.400000	-0.002713	-3.013333	3.010620	0.033083 	0.001841
-90.350000	-0.002763	-3.011667	3.008904	0.033090 	0.001842
-90.300000	-0.002813	-3.010000	3.007187	0.033096 	0.001842
-90.250000	-0.002863	-3.008333	3.005470	0.033103 	0.001843
-90.200000	-0.002912	-3.006667	3.003755	0.033109 	0.001843
-90.150000	-0.002962	-3.005000	3.002038	0.033115 	0.001844
-90.100000	-0.003012	-3.003333	3.000321	0.033120 	0.001844
-90.050000	-0.003062	-3.001667	2.998605	0.033126 	0.001845
-90.000000	-0.003112	-3.000000	2.996888	0.033131 	0.001845
-89.950000	-0.003161	-2.998333	2.995172	0.033137 	0.001846
-89.900000	-0.003211	-2.996667	2.993456	0.033142 	0.001846
-89.850000	-0.003261	-2.995000	2.991739	0.033146 	0.001847
-89.800000	-0.003311	-2.993333	2.990022	0.033151 	0.001847
-89.750000	-0.003361	-2.991667	2.988306	0.033155 	0.001848
-89.700000	-0.003411	-2.990000	2.986589	0.033159 	0.001848
-89.650000	-0.003461	-2.988333	2.984872	0.033163 	0.001849
-89.600000	-0.003511	-2.986667	2.983156	0.033167 	0.001849
-89.550000	-0.003560	-2.985000	2.981440	0.033171 	0.001850
-89.500000	-0.003610	-2.983333	2.979723	0.033174 	0.001851
-89.450000	-0.003660	-2.981667	2.978007	0.033178 	0.001851
-89.400000	-0.003710	-2.980000	2.976290	0.033181 	0.001852
-89.350000	-0.003760	-2.978333	2.974573	0.033183 	0.001852
-89.300000	-0.003810	-2.976667	2.972857	0.033186 	0.001853
-89.250000	-0.003860	-2.975000	2.971140	0.033189 	0.001853
-89.200000	-0.003910	-2.973333	2.969423	0.033191 	0.001854
-89.150000	-0.003960	-2.971667	2.967707	0.033193 	0.001854
-89.100000	-0.004009	-2.970000	2.965991	0.033195 	0.001855
-89.050000	-0.004059	-2.968333	2.964274	0.033197 	0.001855
-89.000000	-0.004109	-2.966667	2.962558	0.033198 	0.001856
-88.950000	-0.004159	-2.965000	2.960841	0.033199 	0.001856
-88.900000	-0.004209	-2.963333	2.959124	0.033200 	0.001857
-88.850000	-0.004259	-2.961667	2.957408	0.033201 	0.001858
-88.800000	-0.004309	-2.960000	2.955691	0.033202 	0.001858
-88.750000	-0.004359	-2.958333	2.953974	0.033202 	0.001859
-88.700000	-0.004409	-2.956667	2.952258	0.033203 	0.001859
-88.650000	-0.004459	-2.955000	2.950541	0.033203 	0.001860
-88.600000	-0.004509	-2.953333	2.948824	0.033203 	0.001860
-88.550000	-0.004559	-2.951667	2.947108	0.033202 	0.001861
-88.500000	-0.004608	-2.950000	2.945392	0.033202 	0.001861
-88.450000	-0.004658	-2.948333	2.943675	0.033201 	0.001862
-88.400000	-0.004708	-2.946667	2.941959	0.033200 	0.001862
-88.350000	-0.004758	-2.945000	2.940242	0.033199 	0.001863
-88.300000	-0.004808	-2.943333	2.938525	0.033198 	0.001863
-88.250000	-0.004858	-2.941667	2.936809	0.033196 	0.001864
-88.200000	-0.004908	-2.940000	2.935092	0.033195 	0.001865
-88.150000	-0.004958	-2.938333	2.933375	0.033193 	0.001865
-88.100000	-0.005008	-2.936667	2.931659	0.033191 	0.001866
-88.050000	-0.005058	-2.935000	2.929942	0.033188 	0.001866
-88.000000	-0.005107	-2.933333	2.928226	0.033186 	0.001867
-87.950000	-0.005157	-2.931667	2.926510	0.033183 	0.001867
-87.900000	-0.005207	-2.930000	2.924793	0.033180 	0.001868
-87.850000	-0.005257	-2.928333	2.923076	0.033177 	0.001868
-87.800000	-0.005307	-2.926667	2.921360	0.033174 	0.001869
-87.750000	-0.005357	-2.925000	2.919643	0.033170 	0.001869
-87.700000	-0.005407	-2.923333	2.917926	0.033166 	0.001870
-87.650000	-0.005457	-2.921667	2.916210	0.033162 	0.001871
-87.600000	-0.005506	-2.920000	2.914494	0.033158 	0.001871
-87.550000	-0.005556	-2.918333	2.912777	0.033154 	0.001872
-87.500000	-0.005606	-2.916667	2.911061	0.033149 	0.001872
-87.450000	-0.005656	-2.915000	2.909344	0.033144 	0.001873
-87.400000	-0.005706	-2.913333	2.907627	0.033139 	0.001873
-87.350000	-0.005755	-2.911667	2.905912	0.033134 	0.001874
-87.300000	-0.005805	-2.910000	2.904195	0.033129 	0.001874
-87.250000	-0.005855	-2.908333	2.902478	0.033123 	0.001875
-87.200000	-0.005905	-2.906667	2.900762	0.033117 	0.001876
-87.150000	-0.005955	-2.905000	2.899045	0.033111 	0.001876
-87.100000	-0.006004	-2.903333	2.897329	0.033105 	0.001877
-87.050000	-0.006054	-2.901667	2.895613	0.033098 	0.001877
-87.000000	-0.006104	-2.900000	2.893896	0.033092 	0.001878
-86.950000	-0.006154	-2.898333	2.892179	0.033085 	0.001878
-86.900000	-0.006203	-2.896667	2.890464	0.033078 	0.001879
-86.850000	-0.006253	-2.895000	2.888747	0.033070 	0.001879
-86.800000	-0.006303	-2.893333	2.887030	0.033063 	0.001880
-86.750000	-0.006352	-2.891667	2.885315	0.033055 	0.001881
-86.700000	-0.006402	-2.890000	2.883598	0.033047 	0.001881
-86.650000	-0.006452	-2.888333	2.881881	0.033039 	0.001882
-86.600000	-0.006501	-2.886667	2.880166	0.033030 	0.001882
-86.550000	-0.006551	-2.885000	2.878449	0.033022 	0.001883
-86.500000	-0.006601	-2.883333	2.876732	0.033013 	0.001883
-86.450000	-0.006650	-2.881667	2.875017	0.033004 	0.001884
-86.400000	-0.006700	-2.880000	2.873300	0.032995 	0.001885
-86.350000	-0.006749	-2.878333	2.871584	0.032985 	0.001885
-86.300000	-0.006799	-2.876667	2.869868	0.032976 	0.001886
-86.250000	-0.006849	-2.875000	2.868151	0.032966 	0.001886
-86.200000	-0.006898	-2.873333	2.866435	0.032956 	0.001887
-86.150000	-0.006948	-2.871667	2.864719	0.032945 	0.001887
-86.100000	-0.006997	-2.870000	2.863003	0.032935 	0.001888
-86.050000	-0.007047	-2.868333	2.861286	0.032924 	0.001888
-86.000000	-0.007096	-2.866667	2.859571	0.032913 	0.001889
-85.950000	-0.007146	-2.865000	2.857854	0.032902 	0.001890
-85.900000	-0.007195	-2.863333	2.856138	0.032890 	0.001890
-85.850000	-0.007244	-2.861667	2.854423	0.032879 	0.001891
-85.800000	-0.007294	-2.860000	2.852706	0.032867 	0.001891
-85.750000	-0.007343	-2.858333	2.850990	0.032855 	0.001892
-85.700000	-0.007393	-2.856667	2.849274	0.032843 	0.001892
-85.650000	-0.007442	-2.855000	2.847558	0.032830 	0.001893
-85.600000	-0.007491	-2.853333	2.845842	0.032817 	0.001894
-85.550000	-0.007541	-2.851667	2.844126	0.032804 	0.001894
-85.500000	-0.007590	-2.850000	2.842410	0.032791 	0.001895
-85.450000	-0.007639	-2.848333	2.840694	0.032778 	0.001895
-85.400000	-0.007688	-2.846667	2.838979	0.032764 	0.001896
-85.350000	-0.007738	-2.845000	2.837262	0.032750 	0.001896
-85.300000	-0.007787	-2.843333	2.835546	0.032736 	0.001897
-85.250000	-0.007836	-2.841667	2.833831	0.032722 	0.001898
-85.200000	-0.007885	-2.840000	2.832115	0.032708 	0.001898
-85.150000	-0.007934	-2.838333	2.830399	0.032693 	0.001899
-85.100000	-0.007984	-2.836667	2.828683	0.032678 	0.001899
-85.050000	-0.008033	-2.835000	2.826967	0.032663 	0.001900
-85.000000	-0.008082	-2.833333	2.825251	0.032648 	0.001900
-84.950000	-0.008131	-2.831667	2.823536	0.032632 	0.001901
-84.900000	-0.008180	-2.830000	2.821820	0.032616 	0.001902
-84.850000	-0.008229	-2.828333	2.820104	0.032600 	0.001902
-84.800000	-0.008278	-2.826667	2.818389	0.032584 	0.001903
-84.750000	-0.008327	-2.825000	2.816673	0.032567 	0.001903
-84.700000	-0.008376	-2.823333	2.814957	0.032551 	0.001904
-84.650000	-0.008425	-2.821667	2.813242	0.032534 	0.001905
-84.600000	-0.008474	-2.820000	2.811526	0.032516 	0.001905
-84.550000	-0.008523	-2.818333	2.809810	0.032499 	0.001906
-84.500000	-0.008571	-2.816667	2.808096	0.032481 	0.001906
-84.450000	-0.008620	-2.815000	2.806380	0.032464 	0.001907
-84.400000	-0.008669	-2.813333	2.804664	0.032446 	0.001907
-84.350000	-0.008718	-2.811667	2.802949	0.032427 	0.001908
-84.300000	-0.008766	-2.810000	2.801234	0.032409 	0.001909
-84.250000	-0.008815	-2.808333	2.799518	0.032390 	0.001909
-84.200000	-0.008864	-2.806667	2.797803	0.032371 	0.001910
-84.150000	-0.008913	-2.805000	2.796087	0.032352 	0.001910
-84.100000	-0.008961	-2.803333	2.794372	0.032332 	0.001911
-84.050000	-0.009010	-2.801667	2.792657	0.032313 	0.001912
-84.000000	-0.009058	-2.800000	2.790942	0.032293 	0.001912
-83.950000	-0.009107	-2.798333	2.789226	0.032273 	0.001913
-83.900000	-0.009155	-2.796667	2.787512	0.032252 	0.001913
-83.850000	-0.009204	-2.795000	2.785796	0.032232 	0.001914
-83.800000	-0.009252	-2.793333	2.784081	0.032211 	0.001914
-83.750000	-0.009301	-2.791667	2.782366	0.032190 	0.001915
-83.700000	-0.009349	-2.790000	2.780651	0.032169 	0.001916
-83.650000	-0.009397	-2.788333	2.778936	0.032147 	0.001916
-83.600000	-0.009446	-2.786667	2.777221	0.032126 	0.001917
-83.550000	-0.009494	-2.785000	2.775506	0.032104 	0.001917
-83.500000	-0.009542	-2.783333	2.773791	0.032081 	0.001918
-83.450000	-0.009591	-2.781667	2.772076	0.032059 	0.001919
-83.400000	-0.009639	-2.780000	2.770361	0.032036 	0.001919
-83.350000	-0.009687	-2.778333	2.768646	0.032014 	0.001920
-83.300000	-0.009735	-2.776667	2.766932	0.031990 	0.001920
-83.250000	-0.009783	-2.775000	2.765217	0.031967 	0.001921
-83.200000	-0.009831	-2.773333	2.763502	0.031944 	0.001922
-83.150000	-0.009879	-2.771667	2.761788	0.031920 	0.001922
-83.100000	-0.009927	-2.770000	2.760073	0.031896 	0.001923
-83.050000	-0.009975	-2.768333	2.758358	0.031871 	0.001923
-83.000000	-0.010023	-2.766667	2.756644	0.031847 	0.001924
-82.950000	-0.010071	-2.765000	2.754929	0.031822 	0.001925
-82.900000	-0.010119	-2.763333	2.753214	0.031797 	0.001925
-82.850000	-0.010167	-2.761667	2.751500	0.031772 	0.001926
-82.800000	-0.010214	-2.760000	2.749786	0.031747 	0.001926
-82.750000	-0.010262	-2.758333	2.748071	0.031721 	0.001927
-82.700000	-0.010310	-2.756667	2.746357	0.031695 	0.001928
-82.650000	-0.010358	-2.755000	2.744642	0.031669 	0.001928
-82.600000	-0.010405	-2.753333	2.742928	0.031643 	0.001929
-82.550000	-0.010453	-2.751667	2.741214	0.031616 	0.001929
-82.500000	-0.010500	-2.750000	2.739500	0.031589 	0.001930
-82.450000	-0.010548	-2.748333	2.737785	0.031562 	0.001931
-82.400000	-0.010595	-2.746667	2.736072	0.031535 	0.001931
-82.350000	-0.010643	-2.745000	2.734357	0.031507 	0.001932
-82.300000	-0.010690	-2.743333	2.732643	0.031479 	0.001932
-82.250000	-0.010737	-2.741667	2.730930	0.031451 	0.001933
-82.200000	-0.010785	-2.740000	2.729215	0.031423 	0.001934
-82.150000	-0.010832	-2.738333	2.727501	0.031395 	0.001934
-82.100000	-0.010879	-2.736667	2.725788	0.031366 	0.001935
-82.050000	-0.010926	-2.735000	2.724074	0.031337 	0.001935
-82.000000	-0.010974	-2.733333	2.722359	0.031308 	0.001936
-81.950000	-0.011021	-2.731667	2.720646	0.031278 	0.001937
-81.900000	-0.011068	-2.730000	2.718932	0.031249 	0.001937
-81.850000	-0.011115	-2.728333	2.717218	0.031219 	0.001938
-81.800000	-0.011162	-2.726667	2.715505	0.031189 	0.001938
-81.750000	-0.011209	-2.725000	2.713791	0.031158 	0.001939
-81.700000	-0.011255	-2.723333	2.712078	0.031128 	0.001940
-81.650000	-0.011302	-2.721667	2.710365	0.031097 	0.001940
-81.600000	-0.011349	-2.720000	2.708651	0.031066 	0.001941
-81.550000	-0.011396	-2.718333	2.706937	0.031034 	0.001942
-81.500000	-0.011442	-2.716667	2.705225	0.031003 	0.001942
-81.450000	-0.011489	-2.715000	2.703511	0.030971 	0.001943
-81.400000	-0.011536	-2.713333	2.701797	0.030939 	0.001943
-81.350000	-0.011582	-2.711667	2.700085	0.030906 	0.001944
-81.300000	-0.011629	-2.710000	2.698371	0.030874 	0.001945
-81.250000	-0.011675	-2.708333	2.696658	0.030841 	0.001945
-81.200000	-0.011722	-2.706667	2.694945	0.030808 	0.001946
-81.150000	-0.011768	-2.705000	2.693232	0.030775 	0.001946
-81.100000	-0.011814	-2.703333	2.691519	0.030741 	0.001947
-81.050000	-0.011861	-2.701667	2.689806	0.030708 	0.001948
-81.000000	-0.011907	-2.700000	2.688093	0.030674 	0.001948
-80.950000	-0.011953	-2.698333	2.686380	0.030639 	0.001949
-80.900000	-0.011999	-2.696667	2.684668	0.030605 	0.001950
-80.850000	-0.012045	-2.695000	2.682955	0.030570 	0.001950
-80.800000	-0.012091	-2.693333	2.681242	0.030535 	0.001951
-80.750000	-0.012137	-2.691667	2.679530	0.030500 	0.001951
-80.700000	-0.012183	-2.690000	2.677817	0.030465 	0.001952
-80.650000	-0.012229	-2.688333	2.676104	0.030429 	0.001953
-80.600000	-0.012275	-2.686667	2.674392	0.030393 	0.001953
-80.550000	-0.012320	-2.685000	2.672680	0.030357 	0.001954
-80.500000	-0.012366	-2.683333	2.670967	0.030320 	0.001955
-80.450000	-0.012412	-2.681667	2.669255	0.030284 	0.001955
-80.400000	-0.012457	-2.680000	2.667543	0.030247 	0.001956
-80.350000	-0.012503	-2.678333	2.665830	0.030210 	0.001956
-80.300000	-0.012548	-2.676667	2.664119	0.030172 	0.001957
-80.250000	-0.012594	-2.675000	2.662406	0.030135 	0.001958
-80.200000	-0.012639	-2.673333	2.660694	0.030097 	0.001958
-80.150000	-0.012685	-2.671667	2.658982	0.030059 	0.001959
-80.100000	-0.012730	-2.670000	2.657270	0.030020 	0.001960
-80.050000	-0.012775	-2.668333	2.655558	0.029982 	0.001960
-80.000000	-0.012820	-2.666667	2.653847	0.029943 	0.001961
-79.950000	-0.012865	-2.665000	2.652135	0.029904 	0.001962
-79.900000	-0.012910	-2.663333	2.650423	0.029865 	0.001962
-79.850000	-0.012955	-2.661667	2.648712	0.029825 	0.001963
-79.800000	-0.013000	-2.660000	2.647000	0.029785 	0.001963
-79.750000	-0.013045	-2.658333	2.645288	0.029745 	0.001964
-79.700000	-0.013090	-2.656667	2.643577	0.029705 	0.001965
-79.650000	-0.013135	-2.655000	2.641865	0.029664 	0.001965
-79.600000	-0.013179	-2.653333	2.640154	0.029624 	0.001966
-79.550000	-0.013224	-2.651667	2.638443	0.029582 	0.001967
-79.500000	-0.013269	-2.650000	2.636731	0.029541 	0.001967
-79.450000	-0.013313	-2.648333	2.635020	0.029500 	0.001968
-79.400000	-0.013358	-2.646667	2.633309	0.029458 	0.001969
-79.350000	-0.013402	-2.645000	2.631598	0.029416 	0.001969
-79.300000	-0.013446	-2.643333	2.629887	0.029374 	0.001970
-79.250000	-0.013491	-2.641667	2.628176	0.029331 	0.001970
-79.200000	-0.013535	-2.640000	2.626465	0.029288 	0.001971
-79.150000	-0.013579	-2.638333	2.624754	0.029245 	0.001972
-79.100000	-0.013623	-2.636667	2.623044	0.029202 	0.001972
-79.050000	-0.013667	-2.635000	2.621333	0.029159 	0.001973
-79.000000	-0.013711	-2.633333	2.619622	0.029115 	0.001974
-78.950000	-0.013755	-2.631667	2.617912	0.029071 	0.001974
-78.900000	-0.013799	-2.630000	2.616201	0.029027 	0.001975
-78.850000	-0.013842	-2.628333	2.614491	0.028982 	0.001976
-78.800000	-0.013886	-2.626667	2.612781	0.028937 	0.001976
-78.750000	-0.013930	-2.625000	2.611070	0.028892 	0.001977
-78.700000	-0.013973	-2.623333	2.609360	0.028847 	0.001978
-78.650000	-0.014017	-2.621667	2.607650	0.028802 	0.001978
-78.600000	-0.014060	-2.620000	2.605940	0.028756 	0.001979
-78.550000	-0.014104	-2.618333	2.604229	0.028710 	0.001979
-78.500000	-0.014147	-2.616667	2.602520	0.028664 	0.001980
-78.450000	-0.014190	-2.615000	2.600810	0.028617 	0.001981
-78.400000	-0.014233	-2.613333	2.599100	0.028571 	0.001981
-78.350000	-0.014276	-2.611667	2.597391	0.028524 	0.001982
-78.300000	-0.014319	-2.610000	2.595681	0.028476 	0.001983
-78.250000	-0.014362	-2.608333	2.593971	0.028429 	0.001983
-78.200000	-0.014405	-2.606667	2.592262	0.028381 	0.001984
-78.150000	-0.014448	-2.605000	2.590552	0.028333 	0.001985
-78.100000	-0.014491	-2.603333	2.588842	0.028285 	0.001985
-78.050000	-0.014533	-2.601667	2.587134	0.028237 	0.001986
-78.000000	-0.014576	-2.600000	2.585424	0.028188 	0.001987
-77.950000	-0.014619	-2.598333	2.583714	0.028139 	0.001987
-77.900000	-0.014661	-2.596667	2.582006	0.028090 	0.001988
-77.850000	-0.014703	-2.595000	2.580297	0.028040 	0.001989
-77.800000	-0.014746	-2.593333	2.578587	0.027991 	0.001989
-77.750000	-0.014788	-2.591667	2.576879	0.027941 	0.001990
-77.700000	-0.014830	-2.590000	2.575170	0.027891 	0.001991
-77.650000	-0.014872	-2.588333	2.573461	0.027840 	0.001991
-77.600000	-0.014914	-2.586667	2.571753	0.027790 	0.001992
-77.550000	-0.014956	-2.585000	2.570044	0.027739 	0.001993
-77.500000	-0.014998	-2.583333	2.568335	0.027687 	0.001993
-77.450000	-0.015040	-2.581667	2.566627	0.027636 	0.001994
-77.400000	-0.015082	-2.580000	2.564918	0.027584 	0.001995
-77.350000	-0.015123	-2.578333	2.563210	0.027532 	0.001995
-77.300000	-0.015165	-2.576667	2.561502	0.027480 	0.001996
-77.250000	-0.015206	-2.575000	2.559794	0.027428 	0.001997
-77.200000	-0.015248	-2.573333	2.558085	0.027375 	0.001997
-77.150000	-0.015289	-2.571667	2.556378	0.027322 	0.001998
-77.100000	-0.015330	-2.570000	2.554670	0.027269 	0.001999
-77.050000	-0.015372	-2.568333	2.552961	0.027216 	0.001999
-77.000000	-0.015413	-2.566667	2.551254	0.027162 	0.002000
-76.950000	-0.015454	-2.565000	2.549546	0.027108 	0.002001
-76.900000	-0.015495	-2.563333	2.547838	0.027054 	0.002001
-76.850000	-0.015536	-2.561667	2.546131	0.027000 	0.002002
-76.800000	-0.015576	-2.560000	2.544424	0.026945 	0.002003
-76.750000	-0.015617	-2.558333	2.542716	0.026890 	0.002003
-76.700000	-0.015658	-2.556667	2.541009	0.026835 	0.002004
-76.650000	-0.015698	-2.555000	2.539302	0.026779 	0.002005
-76.600000	-0.015739	-2.553333	2.537594	0.026724 	0.002005
-76.550000	-0.015779	-2.551667	2.535888	0.026668 	0.002006
-76.500000	-0.015819	-2.550000	2.534181	0.026612 	0.002007
-76.450000	-0.015860	-2.548333	2.532473	0.026555 	0.002007
-76.400000	-0.015900	-2.546667	2.530767	0.026499 	0.002008
-76.350000	-0.015940	-2.545000	2.529060	0.026442 	0.002009
-76.300000	-0.015980	-2.543333	2.527353	0.026385 	0.002009
-76.250000	-0.016020	-2.541667	2.525647	0.026327 	0.002010
-76.200000	-0.016059	-2.540000	2.523941	0.026270 	0.002011
-76.150000	-0.016099	-2.538333	2.522234	0.026212 	0.002011
-76.100000	-0.016139	-2.536667	2.520528	0.026153 	0.002012
-76.050000	-0.016178	-2.535000	2.518822	0.026095 	0.002013
-76.000000	-0.016218	-2.533333	2.517115	0.026036 	0.002013
-75.950000	-0.016257	-2.531667	2.515410	0.025978 	0.002014
-75.900000	-0.016297	-2.530000	2.513703	0.025918 	0.002015
-75.850000	-0.016336	-2.528333	2.511997	0.025859 	0.002015
-75.800000	-0.016375	-2.526667	2.510292	0.025799 	0.002016
-75.750000	-0.016414	-2.525000	2.508586	0.025740 	0.002017
-75.700000	-0.016453	-2.523333	2.506880	0.025679 	0.002018
-75.650000	-0.016492	-2.521667	2.505175	0.025619 	0.002018
-75.600000	-0.016530	-2.520000	2.503470	0.025558 	0.002019
-75.550000	-0.016569	-2.518333	2.501764	0.025497 	0.002020
-75.500000	-0.016608	-2.516667	2.500059	0.025436 	0.002020
-75.450000	-0.016646	-2.515000	2.498354	0.025375 	0.002021
-75.400000	-0.016685	-2.513333	2.496648	0.025313 	0.002022
-75.350000	-0.016723	-2.511667	2.494944	0.025251 	0.002022
-75.300000	-0.016761	-2.510000	2.493239	0.025189 	0.002023
-75.250000	-0.016799	-2.508333	2.491534	0.025127 	0.002024
-75.200000	-0.016837	-2.506667	2.489830	0.025064 	0.002024
-75.150000	-0.016875	-2.505000	2.488125	0.025001 	0.002025
-75.100000	-0.016913	-2.503333	2.486420	0.024938 	0.002026
-75.050000	-0.016951	-2.501667	2.484716	0.024875 	0.002027
-75.000000	-0.016989	-2.500000	2.483011	0.024811 	0.002027
-74.950000	-0.017026	-2.498333	2.481307	0.024747 	0.002028
-74.900000	-0.017064	-2.496667	2.479603	0.024683 	0.002029
-74.850000	-0.017101	-2.495000	2.477899	0.024619 	0.002029
-74.800000	-0.017138	-2.493333	2.476195	0.024554 	0.002030
-74.750000	-0.017176	-2.491667	2.474491	0.024489 	0.002031
-74.700000	-0.017213	-2.490000	2.472787	0.024424 	0.002031
-74.650000	-0.017250	-2.488333	2.471083	0.024359 	0.002032
-74.600000	-0.017287	-2.486667	2.469380	0.024293 	0.002033