VARIABLES = X,Ksi,B,H,U,tau 
ZONE T="Time 60.000000", I=2200, DATAPACKING=POINT
-100.000000	0.010377	-3.333333	3.343710	-0.019844 	0.001747
-99.950000	0.005915	-3.331667	3.337582	-0.012313 	0.001749
-99.900000	0.007746	-3.330000	3.337746	-0.015561 	0.001748
-99.850000	0.006887	-3.328333	3.335220	-0.014200 	0.001749
-99.800000	0.007177	-3.326667	3.333844	-0.014811 	0.001750
-99.750000	0.006976	-3.325000	3.331976	-0.014578 	0.001750
-99.700000	0.006986	-3.323333	3.330319	-0.014705 	0.001750
-99.650000	0.006905	-3.321667	3.328572	-0.014679 	0.001751
-99.600000	0.006862	-3.320000	3.326862	-0.014718 	0.001751
-99.550000	0.006803	-3.318333	3.325136	-0.014729 	0.001752
-99.500000	0.006752	-3.316667	3.323419	-0.014752 	0.001752
-99.450000	0.006697	-3.315000	3.321697	-0.014770 	0.001753
-99.400000	0.006643	-3.313333	3.319976	-0.014790 	0.001753
-99.350000	0.006588	-3.311667	3.318255	-0.014809 	0.001754
-99.300000	0.006534	-3.310000	3.316534	-0.014828 	0.001754
-99.250000	0.006480	-3.308333	3.314813	-0.014847 	0.001755
-99.200000	0.006425	-3.306667	3.313092	-0.014866 	0.001755
-99.150000	0.006371	-3.305000	3.311371	-0.014885 	0.001755
-99.100000	0.006316	-3.303333	3.309649	-0.014904 	0.001756
-99.050000	0.006262	-3.301667	3.307929	-0.014923 	0.001756
-99.000000	0.006207	-3.300000	3.306207	-0.014941 	0.001757
-98.950000	0.006152	-3.298333	3.304485	-0.014960 	0.001757
-98.900000	0.006098	-3.296667	3.302765	-0.014979 	0.001758
-98.850000	0.006043	-3.295000	3.301043	-0.014997 	0.001758
-98.800000	0.005988	-3.293333	3.299321	-0.015016 	0.001759
-98.750000	0.005933	-3.291667	3.297600	-0.015034 	0.001759
-98.700000	0.005878	-3.290000	3.295878	-0.015052 	0.001760
-98.650000	0.005823	-3.288333	3.294156	-0.015071 	0.001760
-98.600000	0.005768	-3.286667	3.292435	-0.015089 	0.001760
-98.550000	0.005712	-3.285000	3.290712	-0.015107 	0.001761
-98.500000	0.005657	-3.283333	3.288990	-0.015125 	0.001761
-98.450000	0.005602	-3.281667	3.287269	-0.015143 	0.001762
-98.400000	0.005546	-3.280000	3.285546	-0.015161 	0.001762
-98.350000	0.005491	-3.278333	3.283824	-0.015179 	0.001763
-98.300000	0.005435	-3.276667	3.282102	-0.015197 	0.001763
-98.250000	0.005380	-3.275000	3.280380	-0.015214 	0.001764
-98.200000	0.005324	-3.273333	3.278657	-0.015232 	0.001764
-98.150000	0.005269	-3.271667	3.276936	-0.015249 	0.001765
-98.100000	0.005213	-3.270000	3.275213	-0.015267 	0.001765
-98.050000	0.005157	-3.268333	3.273490	-0.015284 	0.001766
-98.000000	0.005101	-3.266667	3.271768	-0.015302 	0.001766
-97.950000	0.005045	-3.265000	3.270045	-0.015319 	0.001766
-97.900000	0.004989	-3.263333	3.268322	-0.015336 	0.001767
-97.850000	0.004933	-3.261667	3.266600	-0.015353 	0.001767
-97.800000	0.004877	-3.260000	3.264877	-0.015370 	0.001768
-97.750000	0.004821	-3.258333	3.263154	-0.015387 	0.001768
-97.700000	0.004765	-3.256667	3.261432	-0.015404 	0.001769
-97.650000	0.004709	-3.255000	3.259709	-0.015421 	0.001769
-97.600000	0.004652	-3.253333	3.257985	-0.015438 	0.001770
-97.550000	0.004596	-3.251667	3.256263	-0.015454 	0.001770
-97.500000	0.004540	-3.250000	3.254540	-0.015471 	0.001771
-97.450000	0.004483	-3.248333	3.252816	-0.015488 	0.001771
-97.400000	0.004427	-3.246667	3.251094	-0.015504 	0.001772
-97.350000	0.004370	-3.245000	3.249370	-0.015521 	0.001772
-97.300000	0.004314	-3.243333	3.247647	-0.015537 	0.001773
-97.250000	0.004257	-3.241667	3.245924	-0.015553 	0.001773
-97.200000	0.004200	-3.240000	3.244200	-0.015569 	0.001774
-97.150000	0.004144	-3.238333	3.242477	-0.015585 	0.001774
-97.100000	0.004087	-3.236667	3.240754	-0.015601 	0.001774
-97.050000	0.004030	-3.235000	3.239030	-0.015617 	0.001775
-97.000000	0.003973	-3.233333	3.237306	-0.015633 	0.001775
-96.950000	0.003916	-3.231667	3.235583	-0.015649 	0.001776
-96.900000	0.003859	-3.230000	3.233859	-0.015665 	0.001776
-96.850000	0.003802	-3.228333	3.232135	-0.015681 	0.001777
-96.800000	0.003745	-3.226667	3.230412	-0.015696 	0.001777
-96.750000	0.003688	-3.225000	3.228688	-0.015712 	0.001778
-96.700000	0.003630	-3.223333	3.226963	-0.015727 	0.001778
-96.650000	0.003573	-3.221667	3.225240	-0.015742 	0.001779
-96.600000	0.003516	-3.220000	3.223516	-0.015758 	0.001779
-96.550000	0.003459	-3.218333	3.221792	-0.015773 	0.001780
-96.500000	0.003401	-3.216667	3.220068	-0.015788 	0.001780
-96.450000	0.003344	-3.215000	3.218344	-0.015803 	0.001781
-96.400000	0.003286	-3.213333	3.216619	-0.015818 	0.001781
-96.350000	0.003229	-3.211667	3.214896	-0.015833 	0.001782
-96.300000	0.003171	-3.210000	3.213171	-0.015848 	0.001782
-96.250000	0.003114	-3.208333	3.211447	-0.015862 	0.001783
-96.200000	0.003056	-3.206667	3.209723	-0.015877 	0.001783
-96.150000	0.002998	-3.205000	3.207998	-0.015892 	0.001783
-96.100000	0.002940	-3.203333	3.206273	-0.015906 	0.001784
-96.050000	0.002883	-3.201667	3.204550	-0.015921 	0.001784
-96.000000	0.002825	-3.200000	3.202825	-0.015935 	0.001785
-95.950000	0.002767	-3.198333	3.201100	-0.015949 	0.001785
-95.900000	0.002709	-3.196667	3.199376	-0.015964 	0.001786
-95.850000	0.002651	-3.195000	3.197651	-0.015978 	0.001786
-95.800000	0.002593	-3.193333	3.195926	-0.015992 	0.001787
-95.750000	0.002535	-3.191667	3.194202	-0.016006 	0.001787
-95.700000	0.002477	-3.190000	3.192477	-0.016020 	0.001788
-95.650000	0.002418	-3.188333	3.190751	-0.016034 	0.001788
-95.600000	0.002360	-3.186667	3.189027	-0.016047 	0.001789
-95.550000	0.002302	-3.185000	3.187302	-0.016061 	0.001789
-95.500000	0.002244	-3.183333	3.185577	-0.016075 	0.001790
-95.450000	0.002185	-3.181667	3.183852	-0.016088 	0.001790
-95.400000	0.002127	-3.180000	3.182127	-0.016101 	0.001791
-95.350000	0.002069	-3.178333	3.180402	-0.016115 	0.001791
-95.300000	0.002010	-3.176667	3.178677	-0.016128 	0.001792
-95.250000	0.001952	-3.175000	3.176952	-0.016141 	0.001792
-95.200000	0.001893	-3.173333	3.175226	-0.016154 	0.001793
-95.150000	0.001835	-3.171667	3.173502	-0.016167 	0.001793
-95.100000	0.001776	-3.170000	3.171776	-0.016180 	0.001794
-95.050000	0.001717	-3.168333	3.170050	-0.016193 	0.001794
-95.000000	0.001659	-3.166667	3.168326	-0.016206 	0.001795
-94.950000	0.001600	-3.165000	3.166600	-0.016219 	0.001795
-94.900000	0.001541	-3.163333	3.164874	-0.016231 	0.001796
-94.850000	0.001483	-3.161667	3.163150	-0.016244 	0.001796
-94.800000	0.001424	-3.160000	3.161424	-0.016256 	0.001797
-94.750000	0.001365	-3.158333	3.159698	-0.016269 	0.001797
-94.700000	0.001306	-3.156667	3.157973	-0.016281 	0.001798
-94.650000	0.001247	-3.155000	3.156247	-0.016293 	0.001798
-94.600000	0.001188	-3.153333	3.154521	-0.016305 	0.001799
-94.550000	0.001129	-3.151667	3.152796	-0.016317 	0.001799
-94.500000	0.001070	-3.150000	3.151070	-0.016329 	0.001800
-94.450000	0.001011	-3.148333	3.149344	-0.016341 	0.001800
-94.400000	0.000952	-3.146667	3.147619	-0.016353 	0.001801
-94.350000	0.000893	-3.145000	3.145893	-0.016365 	0.001801
-94.300000	0.000834	-3.143333	3.144167	-0.016376 	0.001801
-94.250000	0.000774	-3.141667	3.142441	-0.016388 	0.001802
-94.200000	0.000715	-3.140000	3.140715	-0.016399 	0.001802
-94.150000	0.000656	-3.138333	3.138989	-0.016411 	0.001803
-94.100000	0.000596	-3.136667	3.137263	-0.016422 	0.001803
-94.050000	0.000537	-3.135000	3.135537	-0.016433 	0.001804
-94.000000	0.000478	-3.133333	3.133811	-0.016444 	0.001804
-93.950000	0.000418	-3.131667	3.132085	-0.016455 	0.001805
-93.900000	0.000359	-3.130000	3.130359	-0.016466 	0.001805
-93.850000	0.000300	-3.128333	3.128633	-0.016477 	0.001806
-93.800000	0.000240	-3.126667	3.126907	-0.016488 	0.001806
-93.750000	0.000181	-3.125000	3.125181	-0.016499 	0.001807
-93.700000	0.000121	-3.123333	3.123454	-0.016509 	0.001807
-93.650000	0.000061	-3.121667	3.121728	-0.016520 	0.001808
-93.600000	0.000002	-3.120000	3.120002	-0.016530 	0.001808
-93.550000	-0.000058	-3.118333	3.118275	-0.016540 	0.001809
-93.500000	-0.000117	-3.116667	3.116550	-0.016551 	0.001809
-93.450000	-0.000177	-3.115000	3.114823	-0.016561 	0.001810
-93.400000	-0.000237	-3.113333	3.113096	-0.016571 	0.001810
-93.350000	-0.000297	-3.111667	3.111370	-0.016581 	0.001811
-93.300000	-0.000356	-3.110000	3.109644	-0.016591 	0.001811
-93.250000	-0.000416	-3.108333	3.107917	-0.016601 	0.001812
-93.200000	-0.000476	-3.106667	3.106191	-0.016610 	0.001812
-93.150000	-0.000536	-3.105000	3.104464	-0.016620 	0.001813
-93.100000	-0.000596	-3.103333	3.102737	-0.016630 	0.001813
-93.050000	-0.000656	-3.101667	3.101011	-0.016639 	0.001814
-93.000000	-0.000716	-3.100000	3.099284	-0.016649 	0.001814
-92.950000	-0.000775	-3.098333	3.097558	-0.016658 	0.001815
-92.900000	-0.000835	-3.096667	3.095832	-0.016667 	0.001816
-92.850000	-0.000895	-3.095000	3.094105	-0.016676 	0.001816
-92.800000	-0.000955	-3.093333	3.092378	-0.016685 	0.001817
-92.750000	-0.001015	-3.091667	3.090652	-0.016694 	0.001817
-92.700000	-0.001076	-3.090000	3.088924	-0.016703 	0.001818
-92.650000	-0.001136	-3.088333	3.087197	-0.016712 	0.001818
-92.600000	-0.001196	-3.086667	3.085471	-0.016721 	0.001819
-92.550000	-0.001256	-3.085000	3.083744	-0.016729 	0.001819
-92.500000	-0.001316	-3.083333	3.082017	-0.016738 	0.001820
-92.450000	-0.001376	-3.081667	3.080291	-0.016746 	0.001820
-92.400000	-0.001436	-3.080000	3.078564	-0.016754 	0.001821
-92.350000	-0.001497	-3.078333	3.076836	-0.016763 	0.001821
-92.300000	-0.001557	-3.076667	3.075110	-0.016771 	0.001822
-92.250000	-0.001617	-3.075000	3.073383	-0.016779 	0.001822
-92.200000	-0.001677	-3.073333	3.071656	-0.016787 	0.001823
-92.150000	-0.001738	-3.071667	3.069929	-0.016795 	0.001823
-92.100000	-0.001798	-3.070000	3.068202	-0.016802 	0.001824
-92.050000	-0.001858	-3.068333	3.066475	-0.016810 	0.001824
-92.000000	-0.001919	-3.066667	3.064748	-0.016818 	0.001825
-91.950000	-0.001979	-3.065000	3.063021	-0.016825 	0.001825
-91.900000	-0.002039	-3.063333	3.061294	-0.016833 	0.001826
-91.850000	-0.002100	-3.061667	3.059567	-0.016840 	0.001826
-91.800000	-0.002160	-3.060000	3.057840	-0.016847 	0.001827
-91.750000	-0.002221	-3.058333	3.056112	-0.016854 	0.001827
-91.700000	-0.002281	-3.056667	3.054386	-0.016861 	0.001828
-91.650000	-0.002341	-3.055000	3.052659	-0.016868 	0.001828
-91.600000	-0.002402	-3.053333	3.050931	-0.016875 	0.001829
-91.550000	-0.002462	-3.051667	3.049205	-0.016882 	0.001829
-91.500000	-0.002523	-3.050000	3.047477	-0.016889 	0.001830
-91.450000	-0.002583	-3.048333	3.045750	-0.016895 	0.001830
-91.400000	-0.002644	-3.046667	3.044023	-0.016902 	0.001831
-91.350000	-0.002704	-3.045000	3.042296	-0.016908 	0.001831
-91.300000	-0.002765	-3.043333	3.040568	-0.016914 	0.001832
-91.250000	-0.002826	-3.041667	3.038841	-0.016920 	0.001832
-91.200000	-0.002886	-3.040000	3.037114	-0.016927 	0.001833
-91.150000	-0.002947	-3.038333	3.035386	-0.016933 	0.001833
-91.100000	-0.003007	-3.036667	3.033660	-0.016938 	0.001834
-91.050000	-0.003068	-3.035000	3.031932	-0.016944 	0.001835
-91.000000	-0.003128	-3.033333	3.030205	-0.016950 	0.001835
-90.950000	-0.003189	-3.031667	3.028478	-0.016956 	0.001836
-90.900000	-0.003250	-3.030000	3.026750	-0.016961 	0.001836
-90.850000	-0.003310	-3.028333	3.025023	-0.016967 	0.001837
-90.800000	-0.003371	-3.026667	3.023296	-0.016972 	0.001837
-90.750000	-0.003432	-3.025000	3.021568	-0.016977 	0.001838
-90.700000	-0.003492	-3.023333	3.019841	-0.016982 	0.001838
-90.650000	-0.003553	-3.021667	3.018114	-0.016987 	0.001839
-90.600000	-0.003614	-3.020000	3.016386	-0.016992 	0.001839
-90.550000	-0.003674	-3.018333	3.014659	-0.016997 	0.001840
-90.500000	-0.003735	-3.016667	3.012932	-0.017002 	0.001840
-90.450000	-0.003796	-3.015000	3.011204	-0.017007 	0.001841
-90.400000	-0.003857	-3.013333	3.009476	-0.017011 	0.001841
-90.350000	-0.003917	-3.011667	3.007750	-0.017016 	0.001842
-90.300000	-0.003978	-3.010000	3.006022	-0.017020 	0.001842
-90.250000	-0.004039	-3.008333	3.004294	-0.017024 	0.001843
-90.200000	-0.004099	-3.006667	3.002568	-0.017028 	0.001843
-90.150000	-0.004160	-3.005000	3.000840	-0.017032 	0.001844
-90.100000	-0.004221	-3.003333	2.999112	-0.017036 	0.001845
-90.050000	-0.004282	-3.001667	2.997385	-0.017040 	0.001845
-90.000000	-0.004342	-3.000000	2.995658	-0.017044 	0.001846
-89.950000	-0.004403	-2.998333	2.993930	-0.017048 	0.001846
-89.900000	-0.004464	-2.996667	2.992203	-0.017051 	0.001847
-89.850000	-0.004525	-2.995000	2.990475	-0.017055 	0.001847
-89.800000	-0.004585	-2.993333	2.988748	-0.017058 	0.001848
-89.750000	-0.004646	-2.991667	2.987021	-0.017062 	0.001848
-89.700000	-0.004707	-2.990000	2.985293	-0.017065 	0.001849
-89.650000	-0.004768	-2.988333	2.983565	-0.017068 	0.001849
-89.600000	-0.004828	-2.986667	2.981839	-0.017071 	0.001850
-89.550000	-0.004889	-2.985000	2.980111	-0.017074 	0.001850
-89.500000	-0.004950	-2.983333	2.978383	-0.017076 	0.001851
-89.450000	-0.005011	-2.981667	2.976656	-0.017079 	0.001851
-89.400000	-0.005071	-2.980000	2.974929	-0.017082 	0.001852
-89.350000	-0.005132	-2.978333	2.973201	-0.017084 	0.001853
-89.300000	-0.005193	-2.976667	2.971474	-0.017087 	0.001853
-89.250000	-0.005254	-2.975000	2.969746	-0.017089 	0.001854
-89.200000	-0.005314	-2.973333	2.968019	-0.017091 	0.001854
-89.150000	-0.005375	-2.971667	2.966292	-0.017093 	0.001855
-89.100000	-0.005436	-2.970000	2.964564	-0.017095 	0.001855
-89.050000	-0.005496	-2.968333	2.962837	-0.017097 	0.001856
-89.000000	-0.005557	-2.966667	2.961110	-0.017099 	0.001856
-88.950000	-0.005618	-2.965000	2.959382	-0.017100 	0.001857
-88.900000	-0.005679	-2.963333	2.957654	-0.017102 	0.001857
-88.850000	-0.005739	-2.961667	2.955928	-0.017103 	0.001858
-88.800000	-0.005800	-2.960000	2.954200	-0.017105 	0.001859
-88.750000	-0.005861	-2.958333	2.952472	-0.017106 	0.001859
-88.700000	-0.005921	-2.956667	2.950746	-0.017107 	0.001860
-88.650000	-0.005982	-2.955000	2.949018	-0.017108 	0.001860
-88.600000	-0.006043	-2.953333	2.947290	-0.017109 	0.001861
-88.550000	-0.006103	-2.951667	2.945564	-0.017110 	0.001861
-88.500000	-0.006164	-2.950000	2.943836	-0.017111 	0.001862
-88.450000	-0.006225	-2.948333	2.942108	-0.017111 	0.001862
-88.400000	-0.006285	-2.946667	2.940382	-0.017112 	0.001863
-88.350000	-0.006346	-2.945000	2.938654	-0.017112 	0.001863
-88.300000	-0.006407	-2.943333	2.936926	-0.017113 	0.001864
-88.250000	-0.006467	-2.941667	2.935200	-0.017113 	0.001865
-88.200000	-0.006528	-2.940000	2.933472	-0.017113 	0.001865
-88.150000	-0.006588	-2.938333	2.931745	-0.017113 	0.001866
-88.100000	-0.006649	-2.936667	2.930018	-0.017113 	0.001866
-88.050000	-0.006709	-2.935000	2.928291	-0.017113 	0.001867
-88.000000	-0.006770	-2.933333	2.926563	-0.017112 	0.001867
-87.950000	-0.006831	-2.931667	2.924836	-0.017112 	0.001868
-87.900000	-0.006891	-2.930000	2.923109	-0.017112 	0.001868
-87.850000	-0.006952	-2.928333	2.921381	-0.017111 	0.001869
-87.800000	-0.007012	-2.926667	2.919655	-0.017110 	0.001869
-87.750000	-0.007073	-2.925000	2.917927	-0.017109 	0.001870
-87.700000	-0.007133	-2.923333	2.916200	-0.017108 	0.001871
-87.650000	-0.007193	-2.921667	2.914474	-0.017107 	0.001871
-87.600000	-0.007254	-2.920000	2.912746	-0.017106 	0.001872
-87.550000	-0.007314	-2.918333	2.911019	-0.017105 	0.001872
-87.500000	-0.007375	-2.916667	2.909292	-0.017104 	0.001873
-87.450000	-0.007435	-2.915000	2.907565	-0.017102 	0.001873
-87.400000	-0.007495	-2.913333	2.905838	-0.017100 	0.001874
-87.350000	-0.007556	-2.911667	2.904111	-0.017099 	0.001874
-87.300000	-0.007616	-2.910000	2.902384	-0.017097 	0.001875
-87.250000	-0.007676	-2.908333	2.900657	-0.017095 	0.001876
-87.200000	-0.007737	-2.906667	2.898930	-0.017093 	0.001876
-87.150000	-0.007797	-2.905000	2.897203	-0.017091 	0.001877
-87.100000	-0.007857	-2.903333	2.895476	-0.017089 	0.001877
-87.050000	-0.007917	-2.901667	2.893750	-0.017086 	0.001878
-87.000000	-0.007978	-2.900000	2.892022	-0.017084 	0.001878
-86.950000	-0.008038	-2.898333	2.890295	-0.017081 	0.001879
-86.900000	-0.008098	-2.896667	2.888569	-0.017079 	0.001880
-86.850000	-0.008158	-2.895000	2.886842	-0.017076 	0.001880
-86.800000	-0.008218	-2.893333	2.885115	-0.017073 	0.001881
-86.750000	-0.008278	-2.891667	2.883389	-0.017070 	0.001881
-86.700000	-0.008338	-2.890000	2.881662	-0.017067 	0.001882
-86.650000	-0.008398	-2.888333	2.879935	-0.017064 	0.001882
-86.600000	-0.008458	-2.886667	2.878209	-0.017060 	0.001883
-86.550000	-0.008518	-2.885000	2.876482	-0.017057 	0.001883
-86.500000	-0.008578	-2.883333	2.874755	-0.017053 	0.001884
-86.450000	-0.008638	-2.881667	2.873029	-0.017050 	0.001885
-86.400000	-0.008698	-2.880000	2.871302	-0.017046 	0.001885
-86.350000	-0.008758	-2.878333	2.869575	-0.017042 	0.001886
-86.300000	-0.008818	-2.876667	2.867849	-0.017038 	0.001886
-86.250000	-0.008878	-2.875000	2.866122	-0.017034 	0.001887
-86.200000	-0.008938	-2.873333	2.864395	-0.017030 	0.001887
-86.150000	-0.008998	-2.871667	2.862669	-0.017025 	0.001888
-86.100000	-0.009057	-2.870000	2.860943	-0.017021 	0.001889
-86.050000	-0.009117	-2.868333	2.859216	-0.017016 	0.001889
-86.000000	-0.009177	-2.866667	2.857490	-0.017012 	0.001890
-85.950000	-0.009236	-2.865000	2.855764	-0.017007 	0.001890
-85.900000	-0.009296	-2.863333	2.854037	-0.017002 	0.001891
-85.850000	-0.009356	-2.861667	2.852311	-0.016997 	0.001891
-85.800000	-0.009415	-2.860000	2.850585	-0.016992 	0.001892
-85.750000	-0.009475	-2.858333	2.848858	-0.016987 	0.001893
-85.700000	-0.009534	-2.856667	2.847133	-0.016981 	0.001893
-85.650000	-0.009594	-2.855000	2.845406	-0.016976 	0.001894
-85.600000	-0.009653	-2.853333	2.843680	-0.016970 	0.001894
-85.550000	-0.009713	-2.851667	2.841954	-0.016965 	0.001895
-85.500000	-0.009772	-2.850000	2.840228	-0.016959 	0.001895
-85.450000	-0.009831	-2.848333	2.838502	-0.016953 	0.001896
-85.400000	-0.009891	-2.846667	2.836776	-0.016947 	0.001897
-85.350000	-0.009950	-2.845000	2.835050	-0.016941 	0.001897
-85.300000	-0.010009	-2.843333	2.833324	-0.016934 	0.001898
-85.250000	-0.010069	-2.841667	2.831598	-0.016928 	0.001898
-85.200000	-0.010128	-2.840000	2.829872	-0.016922 	0.001899
-85.150000	-0.010187	-2.838333	2.828146	-0.016915 	0.001899
-85.100000	-0.010246	-2.836667	2.826421	-0.016908 	0.001900
-85.050000	-0.010305	-2.835000	2.824695	-0.016901 	0.001901
-85.000000	-0.010364	-2.833333	2.822969	-0.016895 	0.001901
-84.950000	-0.010423	-2.831667	2.821244	-0.016888 	0.001902
-84.900000	-0.010482	-2.830000	2.819518	-0.016880 	0.001902
-84.850000	-0.010541	-2.828333	2.817792	-0.016873 	0.001903
-84.800000	-0.010600	-2.826667	2.816067	-0.016866 	0.001904
-84.750000	-0.010659	-2.825000	2.814341	-0.016858 	0.001904
-84.700000	-0.010718	-2.823333	2.812615	-0.016851 	0.001905
-84.650000	-0.010776	-2.821667	2.810891	-0.016843 	0.001905
-84.600000	-0.010835	-2.820000	2.809165	-0.016835 	0.001906
-84.550000	-0.010894	-2.818333	2.807439	-0.016827 	0.001906
-84.500000	-0.010952	-2.816667	2.805715	-0.016819 	0.001907
-84.450000	-0.011011	-2.815000	2.803989	-0.016811 	0.001908
-84.400000	-0.011070	-2.813333	2.802263	-0.016802 	0.001908
-84.350000	-0.011128	-2.811667	2.800539	-0.016794 	0.001909
-84.300000	-0.011187	-2.810000	2.798813	-0.016785 	0.001909
-84.250000	-0.011245	-2.808333	2.797088	-0.016777 	0.001910
-84.200000	-0.011303	-2.806667	2.795364	-0.016768 	0.001911
-84.150000	-0.011362	-2.805000	2.793638	-0.016759 	0.001911
-84.100000	-0.011420	-2.803333	2.791913	-0.016750 	0.001912
-84.050000	-0.011478	-2.801667	2.790189	-0.016741 	0.001912
-84.000000	-0.011536	-2.800000	2.788464	-0.016732 	0.001913
-83.950000	-0.011595	-2.798333	2.786738	-0.016722 	0.001914
-83.900000	-0.011653	-2.796667	2.785014	-0.016713 	0.001914
-83.850000	-0.011711	-2.795000	2.783289	-0.016703 	0.001915
-83.800000	-0.011769	-2.793333	2.781564	-0.016693 	0.001915
-83.750000	-0.011827	-2.791667	2.779840	-0.016684 	0.001916
-83.700000	-0.011885	-2.790000	2.778115	-0.016674 	0.001917
-83.650000	-0.011943	-2.788333	2.776390	-0.016664 	0.001917
-83.600000	-0.012000	-2.786667	2.774667	-0.016653 	0.001918
-83.550000	-0.012058	-2.785000	2.772942	-0.016643 	0.001918
-83.500000	-0.012116	-2.783333	2.771217	-0.016633 	0.001919
-83.450000	-0.012174	-2.781667	2.769493	-0.016622 	0.001919
-83.400000	-0.012231	-2.780000	2.767769	-0.016611 	0.001920
-83.350000	-0.012289	-2.778333	2.766044	-0.016601 	0.001921
-83.300000	-0.012346	-2.776667	2.764321	-0.016590 	0.001921
-83.250000	-0.012404	-2.775000	2.762596	-0.016579 	0.001922
-83.200000	-0.012461	-2.773333	2.760872	-0.016568 	0.001922
-83.150000	-0.012519	-2.771667	2.759148	-0.016556 	0.001923
-83.100000	-0.012576	-2.770000	2.757424	-0.016545 	0.001924
-83.050000	-0.012633	-2.768333	2.755700	-0.016533 	0.001924
-83.000000	-0.012690	-2.766667	2.753977	-0.016522 	0.001925
-82.950000	-0.012748	-2.765000	2.752252	-0.016510 	0.001925
-82.900000	-0.012805	-2.763333	2.750528	-0.016498 	0.001926
-82.850000	-0.012862	-2.761667	2.748805	-0.016486 	0.001927
-82.800000	-0.012919	-2.760000	2.747081	-0.016474 	0.001927
-82.750000	-0.012976	-2.758333	2.745357	-0.016462 	0.001928
-82.700000	-0.013032	-2.756667	2.743635	-0.016449 	0.001929
-82.650000	-0.013089	-2.755000	2.741911	-0.016437 	0.001929
-82.600000	-0.013146	-2.753333	2.740187	-0.016424 	0.001930
-82.550000	-0.013203	-2.751667	2.738464	-0.016412 	0.001930
-82.500000	-0.013259	-2.750000	2.736741	-0.016399 	0.001931
-82.450000	-0.013316	-2.748333	2.735017	-0.016386 	0.001932
-82.400000	-0.013372	-2.746667	2.733295	-0.016373 	0.001932
-82.350000	-0.013429	-2.745000	2.731571	-0.016359 	0.001933
-82.300000	-0.013485	-2.743333	2.729848	-0.016346 	0.001933
-82.250000	-0.013542	-2.741667	2.728125	-0.016333 	0.001934
-82.200000	-0.013598	-2.740000	2.726402	-0.016319 	0.001935
-82.150000	-0.013654	-2.738333	2.724679	-0.016305 	0.001935
-82.100000	-0.013710	-2.736667	2.722957	-0.016292 	0.001936
-82.050000	-0.013766	-2.735000	2.721234	-0.016278 	0.001936
-82.000000	-0.013822	-2.733333	2.719511	-0.016264 	0.001937
-81.950000	-0.013878	-2.731667	2.717789	-0.016249 	0.001938
-81.900000	-0.013934	-2.730000	2.716066	-0.016235 	0.001938
-81.850000	-0.013990	-2.728333	2.714343	-0.016221 	0.001939
-81.800000	-0.014046	-2.726667	2.712621	-0.016206 	0.001940
-81.750000	-0.014101	-2.725000	2.710899	-0.016191 	0.001940
-81.700000	-0.014157	-2.723333	2.709176	-0.016177 	0.001941
-81.650000	-0.014213	-2.721667	2.707454	-0.016162 	0.001941
-81.600000	-0.014268	-2.720000	2.705732	-0.016147 	0.001942
-81.550000	-0.014324	-2.718333	2.704009	-0.016132 	0.001943
-81.500000	-0.014379	-2.716667	2.702288	-0.016116 	0.001943
-81.450000	-0.014434	-2.715000	2.700566	-0.016101 	0.001944
-81.400000	-0.014489	-2.713333	2.698844	-0.016085 	0.001944
-81.350000	-0.014545	-2.711667	2.697122	-0.016070 	0.001945
-81.300000	-0.014600	-2.710000	2.695400	-0.016054 	0.001946
-81.250000	-0.014655	-2.708333	2.693678	-0.016038 	0.001946
-81.200000	-0.014710	-2.706667	2.691957	-0.016022 	0.001947
-81.150000	-0.014765	-2.705000	2.690235	-0.016006 	0.001948
-81.100000	-0.014819	-2.703333	2.688514	-0.015990 	0.001948
-81.050000	-0.014874	-2.701667	2.686793	-0.015973 	0.001949
-81.000000	-0.014929	-2.700000	2.685071	-0.015957 	0.001949
-80.950000	-0.014983	-2.698333	2.683350	-0.015940 	0.001950
-80.900000	-0.015038	-2.696667	2.681629	-0.015923 	0.001951
-80.850000	-0.015092	-2.695000	2.679908	-0.015906 	0.001951
-80.800000	-0.015147	-2.693333	2.678186	-0.015889 	0.001952
-80.750000	-0.015201	-2.691667	2.676466	-0.015872 	0.001953
-80.700000	-0.015255	-2.690000	2.674745	-0.015855 	0.001953
-80.650000	-0.015309	-2.688333	2.673024	-0.015837 	0.001954
-80.600000	-0.015363	-2.686667	2.671304	-0.015820 	0.001954
-80.550000	-0.015417	-2.685000	2.669583	-0.015802 	0.001955
-80.500000	-0.015471	-2.683333	2.667862	-0.015784 	0.001956
-80.450000	-0.015525	-2.681667	2.666142	-0.015767 	0.001956
-80.400000	-0.015579	-2.680000	2.664421	-0.015749 	0.001957
-80.350000	-0.015633	-2.678333	2.662700	-0.015730 	0.001958
-80.300000	-0.015686	-2.676667	2.660981	-0.015712 	0.001958
-80.250000	-0.015740	-2.675000	2.659260	-0.015694 	0.001959
-80.200000	-0.015793	-2.673333	2.657540	-0.015675 	0.001960
-80.150000	-0.015847	-2.671667	2.655820	-0.015657 	0.001960
-80.100000	-0.015900	-2.670000	2.654100	-0.015638 	0.001961
-80.050000	-0.015953	-2.668333	2.652380	-0.015619 	0.001961
-80.000000	-0.016006	-2.666667	2.650661	-0.015600 	0.001962
-79.950000	-0.016059	-2.665000	2.648941	-0.015581 	0.001963
-79.900000	-0.016112	-2.663333	2.647221	-0.015561 	0.001963
-79.850000	-0.016165	-2.661667	2.645502	-0.015542 	0.001964
-79.800000	-0.016218	-2.660000	2.643782	-0.015522 	0.001965
-79.750000	-0.016271	-2.658333	2.642062	-0.015503 	0.001965
-79.700000	-0.016323	-2.656667	2.640344	-0.015483 	0.001966
-79.650000	-0.016376	-2.655000	2.638624	-0.015463 	0.001967
-79.600000	-0.016428	-2.653333	2.636905	-0.015443 	0.001967
-79.550000	-0.016481	-2.651667	2.635186	-0.015423 	0.001968
-79.500000	-0.016533	-2.650000	2.633467	-0.015403 	0.001968
-79.450000	-0.016585	-2.648333	2.631748	-0.015382 	0.001969
-79.400000	-0.016637	-2.646667	2.630030	-0.015362 	0.001970
-79.350000	-0.016689	-2.645000	2.628311	-0.015341 	0.001970
-79.300000	-0.016741	-2.643333	2.626592	-0.015320 	0.001971
-79.250000	-0.016793	-2.641667	2.624874	-0.015299 	0.001972
-79.200000	-0.016845	-2.640000	2.623155	-0.015278 	0.001972
-79.150000	-0.016897	-2.638333	2.621436	-0.015257 	0.001973
-79.100000	-0.016948	-2.636667	2.619719	-0.015236 	0.001974
-79.050000	-0.017000	-2.635000	2.618000	-0.015214 	0.001974
-79.000000	-0.017051	-2.633333	2.616282	-0.015193 	0.001975
-78.950000	-0.017102	-2.631667	2.614565	-0.015171 	0.001976
-78.900000	-0.017154	-2.630000	2.612846	-0.015149 	0.001976
-78.850000	-0.017205	-2.628333	2.611128	-0.015127 	0.001977
-78.800000	-0.017256	-2.626667	2.609411	-0.015105 	0.001977
-78.750000	-0.017307	-2.625000	2.607693	-0.015083 	0.001978
-78.700000	-0.017358	-2.623333	2.605975	-0.015061 	0.001979
-78.650000	-0.017408	-2.621667	2.604259	-0.015038 	0.001979
-78.600000	-0.017459	-2.620000	2.602541	-0.015015 	0.001980
-78.550000	-0.017510	-2.618333	2.600823	-0.014993 	0.001981
-78.500000	-0.017560	-2.616667	2.599107	-0.014970 	0.001981
-78.450000	-0.017611	-2.615000	2.597389	-0.014947 	0.001982
-78.400000	-0.017661	-2.613333	2.595672	-0.014924 	0.001983
-78.350000	-0.017711	-2.611667	2.593956	-0.014901 	0.001983
-78.300000	-0.017761	-2.610000	2.592239	-0.014877 	0.001984
-78.250000	-0.017811	-2.608333	2.590522	-0.014854 	0.001985
-78.200000	-0.017861	-2.606667	2.588806	-0.014830 	0.001985
-78.150000	-0.017911	-2.605000	2.587089	-0.014806 	0.001986
-78.100000	-0.017961	-2.603333	2.585372	-0.014783 	0.001987
-78.050000	-0.018010	-2.601667	2.583657	-0.014759 	0.001987
-78.000000	-0.018060	-2.600000	2.581940	-0.014734 	0.001988
-77.950000	-0.018109	-2.598333	2.580224	-0.014710 	0.001989
-77.900000	-0.018159	-2.596667	2.578508	-0.014686 	0.001989
-77.850000	-0.018208	-2.595000	2.576792	-0.014661 	0.001990
-77.800000	-0.018257	-2.593333	2.575076	-0.014637 	0.001991
-77.750000	-0.018306	-2.591667	2.573361	-0.014612 	0.001991
-77.700000	-0.018355	-2.590000	2.571645	-0.014587 	0.001992
-77.650000	-0.018404	-2.588333	2.569929	-0.014562 	0.001993
-77.600000	-0.018452	-2.586667	2.568215	-0.014537 	0.001993
-77.550000	-0.018501	-2.585000	2.566499	-0.014512 	0.001994
-77.500000	-0.018550	-2.583333	2.564783	-0.014486 	0.001995
-77.450000	-0.018598	-2.581667	2.563069	-0.014461 	0.001995
-77.400000	-0.018646	-2.580000	2.561354	-0.014435 	0.001996
-77.350000	-0.018694	-2.578333	2.559639	-0.014409 	0.001997
-77.300000	-0.018743	-2.576667	2.557924	-0.014383 	0.001997
-77.250000	-0.018791	-2.575000	2.556209	-0.014357 	0.001998
-77.200000	-0.018838	-2.573333	2.554495	-0.014331 	0.001999
-77.150000	-0.018886	-2.571667	2.552781	-0.014305 	0.001999
-77.100000	-0.018934	-2.570000	2.551066	-0.014278 	0.002000
-77.050000	-0.018981	-2.568333	2.549352	-0.014252 	0.002001
-77.000000	-0.019029	-2.566667	2.547638	-0.014225 	0.002001
-76.950000	-0.019076	-2.565000	2.545924	-0.014198 	0.002002
-76.900000	-0.019124	-2.563333	2.544209	-0.014171 	0.002003
-76.850000	-0.019171	-2.561667	2.542496	-0.014144 	0.002003
-76.800000	-0.019218	-2.560000	2.540782	-0.014117 	0.002004
-76.750000	-0.019265	-2.558333	2.539068	-0.014089 	0.002005
-76.700000	-0.019311	-2.556667	2.537356	-0.014062 	0.002005
-76.650000	-0.019358	-2.555000	2.535642	-0.014034 	0.002006
-76.600000	-0.019405	-2.553333	2.533928	-0.014007 	0.002007
-76.550000	-0.019451	-2.551667	2.532216	-0.013979 	0.002007
-76.500000	-0.019497	-2.550000	2.530503	-0.013951 	0.002008
-76.450000	-0.019544	-2.548333	2.528789	-0.013923 	0.002009
-76.400000	-0.019590	-2.546667	2.527077	-0.013894 	0.002009
-76.350000	-0.019636	-2.545000	2.525364	-0.013866 	0.002010
-76.300000	-0.019682	-2.543333	2.523651	-0.013838 	0.002011
-76.250000	-0.019727	-2.541667	2.521940	-0.013809 	0.002011
-76.200000	-0.019773	-2.540000	2.520227	-0.013780 	0.002012
-76.150000	-0.019819	-2.538333	2.518514	-0.013751 	0.002013
-76.100000	-0.019864	-2.536667	2.516803	-0.013722 	0.002014
-76.050000	-0.019909	-2.535000	2.515091	-0.013693 	0.002014
-76.000000	-0.019955	-2.533333	2.513378	-0.013664 	0.002015
-75.950000	-0.020000	-2.531667	2.511667	-0.013634 	0.002016
-75.900000	-0.020045	-2.530000	2.509955	-0.013605 	0.002016
-75.850000	-0.020090	-2.528333	2.508243	-0.013575 	0.002017
-75.800000	-0.020134	-2.526667	2.506533	-0.013545 	0.002018
-75.750000	-0.020179	-2.525000	2.504821	-0.013515 	0.002018
-75.700000	-0.020223	-2.523333	2.503110	-0.013485 	0.002019
-75.650000	-0.020268	-2.521667	2.501399	-0.013455 	0.002020
-75.600000	-0.020312	-2.520000	2.499688	-0.013425 	0.002020
-75.550000	-0.020356	-2.518333	2.497977	-0.013394 	0.002021
-75.500000	-0.020400	-2.516667	2.496267	-0.013364 	0.002022
-75.450000	-0.020444	-2.515000	2.494556	-0.013333 	0.002023
-75.400000	-0.020488	-2.513333	2.492845	-0.013302 	0.002023
-75.350000	-0.020531	-2.511667	2.491136	-0.013271 	0.002024
-75.300000	-0.020575	-2.510000	2.489425	-0.013240 	0.002025
-75.250000	-0.020618	-2.508333	2.487715	-0.013209 	0.002025
-75.200000	-0.020662	-2.506667	2.486005	-0.013177 	0.002026
-75.150000	-0.020705	-2.505000	2.484295	-0.013146 	0.002027
-75.100000	-0.020748	-2.503333	2.482585	-0.013114 	0.002027
-75.050000	-0.020791	-2.501667	2.480876	-0.013083 	0.002028