VARIABLES = X,Ksi,B,H,U,tau 
ZONE T="Time 10.000000", I=2200, DATAPACKING=POINT
-100.000000	0.008340	-3.333333	3.341673	-0.026136 	0.001747
-99.950000	0.006242	-3.331667	3.337909	-0.022654 	0.001748
-99.900000	0.007069	-3.330000	3.337069	-0.024184 	0.001749
-99.850000	0.006648	-3.328333	3.334981	-0.023574 	0.001749
-99.800000	0.006760	-3.326667	3.333427	-0.023878 	0.001750
-99.750000	0.006644	-3.325000	3.331644	-0.023791 	0.001750
-99.700000	0.006625	-3.323333	3.329958	-0.023871 	0.001751
-99.650000	0.006565	-3.321667	3.328232	-0.023880 	0.001751
-99.600000	0.006522	-3.320000	3.326522	-0.023919 	0.001751
-99.550000	0.006472	-3.318333	3.324805	-0.023945 	0.001752
-99.500000	0.006425	-3.316667	3.323092	-0.023976 	0.001752
-99.450000	0.006377	-3.315000	3.321377	-0.024005 	0.001753
-99.400000	0.006329	-3.313333	3.319662	-0.024035 	0.001753
-99.350000	0.006280	-3.311667	3.317947	-0.024064 	0.001754
-99.300000	0.006232	-3.310000	3.316232	-0.024093 	0.001754
-99.250000	0.006184	-3.308333	3.314517	-0.024122 	0.001755
-99.200000	0.006136	-3.306667	3.312803	-0.024151 	0.001755
-99.150000	0.006087	-3.305000	3.311087	-0.024180 	0.001756
-99.100000	0.006039	-3.303333	3.309372	-0.024209 	0.001756
-99.050000	0.005990	-3.301667	3.307657	-0.024238 	0.001756
-99.000000	0.005942	-3.300000	3.305942	-0.024266 	0.001757
-98.950000	0.005893	-3.298333	3.304226	-0.024295 	0.001757
-98.900000	0.005844	-3.296667	3.302511	-0.024323 	0.001758
-98.850000	0.005796	-3.295000	3.300796	-0.024351 	0.001758
-98.800000	0.005747	-3.293333	3.299080	-0.024380 	0.001759
-98.750000	0.005698	-3.291667	3.297365	-0.024408 	0.001759
-98.700000	0.005649	-3.290000	3.295649	-0.024436 	0.001760
-98.650000	0.005600	-3.288333	3.293933	-0.024464 	0.001760
-98.600000	0.005551	-3.286667	3.292218	-0.024491 	0.001761
-98.550000	0.005502	-3.285000	3.290502	-0.024519 	0.001761
-98.500000	0.005453	-3.283333	3.288786	-0.024547 	0.001761
-98.450000	0.005404	-3.281667	3.287071	-0.024574 	0.001762
-98.400000	0.005355	-3.280000	3.285355	-0.024601 	0.001762
-98.350000	0.005306	-3.278333	3.283639	-0.024629 	0.001763
-98.300000	0.005256	-3.276667	3.281923	-0.024656 	0.001763
-98.250000	0.005207	-3.275000	3.280207	-0.024683 	0.001764
-98.200000	0.005158	-3.273333	3.278491	-0.024709 	0.001764
-98.150000	0.005108	-3.271667	3.276775	-0.024736 	0.001765
-98.100000	0.005059	-3.270000	3.275059	-0.024763 	0.001765
-98.050000	0.005009	-3.268333	3.273342	-0.024789 	0.001766
-98.000000	0.004960	-3.266667	3.271627	-0.024816 	0.001766
-97.950000	0.004910	-3.265000	3.269910	-0.024842 	0.001767
-97.900000	0.004860	-3.263333	3.268193	-0.024868 	0.001767
-97.850000	0.004811	-3.261667	3.266478	-0.024895 	0.001767
-97.800000	0.004761	-3.260000	3.264761	-0.024921 	0.001768
-97.750000	0.004711	-3.258333	3.263044	-0.024946 	0.001768
-97.700000	0.004661	-3.256667	3.261328	-0.024972 	0.001769
-97.650000	0.004611	-3.255000	3.259611	-0.024998 	0.001769
-97.600000	0.004561	-3.253333	3.257894	-0.025023 	0.001770
-97.550000	0.004511	-3.251667	3.256178	-0.025049 	0.001770
-97.500000	0.004461	-3.250000	3.254461	-0.025074 	0.001771
-97.450000	0.004411	-3.248333	3.252744	-0.025099 	0.001771
-97.400000	0.004361	-3.246667	3.251028	-0.025124 	0.001772
-97.350000	0.004310	-3.245000	3.249310	-0.025149 	0.001772
-97.300000	0.004260	-3.243333	3.247593	-0.025174 	0.001773
-97.250000	0.004210	-3.241667	3.245877	-0.025199 	0.001773
-97.200000	0.004159	-3.240000	3.244159	-0.025224 	0.001774
-97.150000	0.004109	-3.238333	3.242442	-0.025248 	0.001774
-97.100000	0.004058	-3.236667	3.240725	-0.025273 	0.001774
-97.050000	0.004008	-3.235000	3.239008	-0.025297 	0.001775
-97.000000	0.003957	-3.233333	3.237290	-0.025321 	0.001775
-96.950000	0.003907	-3.231667	3.235574	-0.025345 	0.001776
-96.900000	0.003856	-3.230000	3.233856	-0.025369 	0.001776
-96.850000	0.003806	-3.228333	3.232139	-0.025393 	0.001777
-96.800000	0.003755	-3.226667	3.230422	-0.025416 	0.001777
-96.750000	0.003704	-3.225000	3.228704	-0.025440 	0.001778
-96.700000	0.003653	-3.223333	3.226986	-0.025463 	0.001778
-96.650000	0.003602	-3.221667	3.225269	-0.025487 	0.001779
-96.600000	0.003551	-3.220000	3.223551	-0.025510 	0.001779
-96.550000	0.003500	-3.218333	3.221833	-0.025533 	0.001780
-96.500000	0.003449	-3.216667	3.220116	-0.025556 	0.001780
-96.450000	0.003398	-3.215000	3.218398	-0.025579 	0.001781
-96.400000	0.003347	-3.213333	3.216680	-0.025601 	0.001781
-96.350000	0.003296	-3.211667	3.214963	-0.025624 	0.001782
-96.300000	0.003245	-3.210000	3.213245	-0.025646 	0.001782
-96.250000	0.003194	-3.208333	3.211527	-0.025669 	0.001783
-96.200000	0.003143	-3.206667	3.209810	-0.025691 	0.001783
-96.150000	0.003091	-3.205000	3.208091	-0.025713 	0.001783
-96.100000	0.003040	-3.203333	3.206373	-0.025735 	0.001784
-96.050000	0.002989	-3.201667	3.204656	-0.025757 	0.001784
-96.000000	0.002937	-3.200000	3.202937	-0.025778 	0.001785
-95.950000	0.002886	-3.198333	3.201219	-0.025800 	0.001785
-95.900000	0.002834	-3.196667	3.199501	-0.025821 	0.001786
-95.850000	0.002783	-3.195000	3.197783	-0.025843 	0.001786
-95.800000	0.002731	-3.193333	3.196064	-0.025864 	0.001787
-95.750000	0.002679	-3.191667	3.194346	-0.025885 	0.001787
-95.700000	0.002628	-3.190000	3.192628	-0.025906 	0.001788
-95.650000	0.002576	-3.188333	3.190909	-0.025927 	0.001788
-95.600000	0.002524	-3.186667	3.189191	-0.025947 	0.001789
-95.550000	0.002472	-3.185000	3.187472	-0.025968 	0.001789
-95.500000	0.002421	-3.183333	3.185754	-0.025988 	0.001790
-95.450000	0.002369	-3.181667	3.184036	-0.026008 	0.001790
-95.400000	0.002317	-3.180000	3.182317	-0.026029 	0.001791
-95.350000	0.002265	-3.178333	3.180598	-0.026049 	0.001791
-95.300000	0.002213	-3.176667	3.178880	-0.026069 	0.001792
-95.250000	0.002161	-3.175000	3.177161	-0.026088 	0.001792
-95.200000	0.002109	-3.173333	3.175442	-0.026108 	0.001793
-95.150000	0.002057	-3.171667	3.173724	-0.026127 	0.001793
-95.100000	0.002005	-3.170000	3.172005	-0.026147 	0.001794
-95.050000	0.001953	-3.168333	3.170286	-0.026166 	0.001794
-95.000000	0.001900	-3.166667	3.168567	-0.026185 	0.001795
-94.950000	0.001848	-3.165000	3.166848	-0.026204 	0.001795
-94.900000	0.001796	-3.163333	3.165129	-0.026223 	0.001796
-94.850000	0.001744	-3.161667	3.163411	-0.026242 	0.001796
-94.800000	0.001691	-3.160000	3.161691	-0.026260 	0.001797
-94.750000	0.001639	-3.158333	3.159972	-0.026279 	0.001797
-94.700000	0.001587	-3.156667	3.158254	-0.026297 	0.001797
-94.650000	0.001534	-3.155000	3.156534	-0.026315 	0.001798
-94.600000	0.001482	-3.153333	3.154815	-0.026333 	0.001798
-94.550000	0.001429	-3.151667	3.153096	-0.026351 	0.001799
-94.500000	0.001377	-3.150000	3.151377	-0.026369 	0.001799
-94.450000	0.001324	-3.148333	3.149657	-0.026386 	0.001800
-94.400000	0.001271	-3.146667	3.147938	-0.026404 	0.001800
-94.350000	0.001219	-3.145000	3.146219	-0.026421 	0.001801
-94.300000	0.001166	-3.143333	3.144499	-0.026438 	0.001801
-94.250000	0.001113	-3.141667	3.142780	-0.026455 	0.001802
-94.200000	0.001061	-3.140000	3.141061	-0.026472 	0.001802
-94.150000	0.001008	-3.138333	3.139341	-0.026489 	0.001803
-94.100000	0.000955	-3.136667	3.137622	-0.026506 	0.001803
-94.050000	0.000902	-3.135000	3.135902	-0.026522 	0.001804
-94.000000	0.000849	-3.133333	3.134182	-0.026539 	0.001804
-93.950000	0.000796	-3.131667	3.132463	-0.026555 	0.001805
-93.900000	0.000744	-3.130000	3.130744	-0.026571 	0.001805
-93.850000	0.000691	-3.128333	3.129024	-0.026587 	0.001806
-93.800000	0.000638	-3.126667	3.127305	-0.026603 	0.001806
-93.750000	0.000585	-3.125000	3.125585	-0.026618 	0.001807
-93.700000	0.000532	-3.123333	3.123865	-0.026634 	0.001807
-93.650000	0.000478	-3.121667	3.122145	-0.026649 	0.001808
-93.600000	0.000425	-3.120000	3.120425	-0.026664 	0.001808
-93.550000	0.000372	-3.118333	3.118705	-0.026679 	0.001809
-93.500000	0.000319	-3.116667	3.116986	-0.026694 	0.001809
-93.450000	0.000266	-3.115000	3.115266	-0.026709 	0.001810
-93.400000	0.000213	-3.113333	3.113546	-0.026724 	0.001810
-93.350000	0.000159	-3.111667	3.111826	-0.026738 	0.001811
-93.300000	0.000106	-3.110000	3.110106	-0.026753 	0.001811
-93.250000	0.000053	-3.108333	3.108386	-0.026767 	0.001812
-93.200000	-0.000001	-3.106667	3.106666	-0.026781 	0.001812
-93.150000	-0.000054	-3.105000	3.104946	-0.026795 	0.001813
-93.100000	-0.000107	-3.103333	3.103226	-0.026809 	0.001813
-93.050000	-0.000161	-3.101667	3.101506	-0.026822 	0.001814
-93.000000	-0.000214	-3.100000	3.099786	-0.026836 	0.001814
-92.950000	-0.000268	-3.098333	3.098065	-0.026849 	0.001815
-92.900000	-0.000321	-3.096667	3.096346	-0.026862 	0.001815
-92.850000	-0.000375	-3.095000	3.094625	-0.026876 	0.001816
-92.800000	-0.000428	-3.093333	3.092905	-0.026888 	0.001816
-92.750000	-0.000482	-3.091667	3.091185	-0.026901 	0.001817
-92.700000	-0.000535	-3.090000	3.089465	-0.026914 	0.001817
-92.650000	-0.000589	-3.088333	3.087744	-0.026926 	0.001818
-92.600000	-0.000642	-3.086667	3.086025	-0.026939 	0.001818
-92.550000	-0.000696	-3.085000	3.084304	-0.026951 	0.001819
-92.500000	-0.000750	-3.083333	3.082583	-0.026963 	0.001819
-92.450000	-0.000804	-3.081667	3.080863	-0.026975 	0.001820
-92.400000	-0.000857	-3.080000	3.079143	-0.026986 	0.001820
-92.350000	-0.000911	-3.078333	3.077422	-0.026998 	0.001821
-92.300000	-0.000965	-3.076667	3.075702	-0.027009 	0.001821
-92.250000	-0.001019	-3.075000	3.073981	-0.027020 	0.001822
-92.200000	-0.001072	-3.073333	3.072261	-0.027032 	0.001822
-92.150000	-0.001126	-3.071667	3.070541	-0.027042 	0.001823
-92.100000	-0.001180	-3.070000	3.068820	-0.027053 	0.001823
-92.050000	-0.001234	-3.068333	3.067099	-0.027064 	0.001824
-92.000000	-0.001288	-3.066667	3.065379	-0.027074 	0.001825
-91.950000	-0.001342	-3.065000	3.063658	-0.027085 	0.001825
-91.900000	-0.001396	-3.063333	3.061937	-0.027095 	0.001826
-91.850000	-0.001450	-3.061667	3.060217	-0.027105 	0.001826
-91.800000	-0.001504	-3.060000	3.058496	-0.027115 	0.001827
-91.750000	-0.001558	-3.058333	3.056775	-0.027124 	0.001827
-91.700000	-0.001612	-3.056667	3.055055	-0.027134 	0.001828
-91.650000	-0.001666	-3.055000	3.053334	-0.027143 	0.001828
-91.600000	-0.001720	-3.053333	3.051613	-0.027153 	0.001829
-91.550000	-0.001774	-3.051667	3.049893	-0.027162 	0.001829
-91.500000	-0.001828	-3.050000	3.048172	-0.027171 	0.001830
-91.450000	-0.001882	-3.048333	3.046451	-0.027179 	0.001830
-91.400000	-0.001936	-3.046667	3.044731	-0.027188 	0.001831
-91.350000	-0.001990	-3.045000	3.043010	-0.027196 	0.001831
-91.300000	-0.002044	-3.043333	3.041289	-0.027205 	0.001832
-91.250000	-0.002099	-3.041667	3.039568	-0.027213 	0.001832
-91.200000	-0.002153	-3.040000	3.037847	-0.027221 	0.001833
-91.150000	-0.002207	-3.038333	3.036126	-0.027229 	0.001833
-91.100000	-0.002261	-3.036667	3.034406	-0.027236 	0.001834
-91.050000	-0.002315	-3.035000	3.032685	-0.027244 	0.001834
-91.000000	-0.002370	-3.033333	3.030963	-0.027251 	0.001835
-90.950000	-0.002424	-3.031667	3.029243	-0.027258 	0.001835
-90.900000	-0.002478	-3.030000	3.027522	-0.027265 	0.001836
-90.850000	-0.002532	-3.028333	3.025801	-0.027272 	0.001836
-90.800000	-0.002587	-3.026667	3.024080	-0.027279 	0.001837
-90.750000	-0.002641	-3.025000	3.022359	-0.027285 	0.001837
-90.700000	-0.002695	-3.023333	3.020638	-0.027292 	0.001838
-90.650000	-0.002750	-3.021667	3.018917	-0.027298 	0.001838
-90.600000	-0.002804	-3.020000	3.017196	-0.027304 	0.001839
-90.550000	-0.002858	-3.018333	3.015475	-0.027310 	0.001840
-90.500000	-0.002913	-3.016667	3.013754	-0.027316 	0.001840
-90.450000	-0.002967	-3.015000	3.012033	-0.027321 	0.001841
-90.400000	-0.003021	-3.013333	3.010312	-0.027327 	0.001841
-90.350000	-0.003076	-3.011667	3.008591	-0.027332 	0.001842
-90.300000	-0.003130	-3.010000	3.006870	-0.027337 	0.001842
-90.250000	-0.003185	-3.008333	3.005148	-0.027342 	0.001843
-90.200000	-0.003239	-3.006667	3.003428	-0.027346 	0.001843
-90.150000	-0.003294	-3.005000	3.001706	-0.027351 	0.001844
-90.100000	-0.003348	-3.003333	2.999985	-0.027355 	0.001844
-90.050000	-0.003403	-3.001667	2.998264	-0.027360 	0.001845
-90.000000	-0.003457	-3.000000	2.996543	-0.027364 	0.001845
-89.950000	-0.003511	-2.998333	2.994822	-0.027367 	0.001846
-89.900000	-0.003566	-2.996667	2.993101	-0.027371 	0.001846
-89.850000	-0.003620	-2.995000	2.991380	-0.027375 	0.001847
-89.800000	-0.003675	-2.993333	2.989658	-0.027378 	0.001847
-89.750000	-0.003729	-2.991667	2.987938	-0.027381 	0.001848
-89.700000	-0.003784	-2.990000	2.986216	-0.027384 	0.001849
-89.650000	-0.003838	-2.988333	2.984495	-0.027387 	0.001849
-89.600000	-0.003893	-2.986667	2.982774	-0.027390 	0.001850
-89.550000	-0.003948	-2.985000	2.981052	-0.027393 	0.001850
-89.500000	-0.004002	-2.983333	2.979331	-0.027395 	0.001851
-89.450000	-0.004057	-2.981667	2.977610	-0.027397 	0.001851
-89.400000	-0.004111	-2.980000	2.975889	-0.027399 	0.001852
-89.350000	-0.004166	-2.978333	2.974167	-0.027401 	0.001852
-89.300000	-0.004220	-2.976667	2.972447	-0.027403 	0.001853
-89.250000	-0.004275	-2.975000	2.970725	-0.027404 	0.001853
-89.200000	-0.004329	-2.973333	2.969004	-0.027405 	0.001854
-89.150000	-0.004384	-2.971667	2.967283	-0.027407 	0.001854
-89.100000	-0.004438	-2.970000	2.965562	-0.027408 	0.001855
-89.050000	-0.004493	-2.968333	2.963840	-0.027408 	0.001855
-89.000000	-0.004548	-2.966667	2.962119	-0.027409 	0.001856
-88.950000	-0.004602	-2.965000	2.960398	-0.027410 	0.001857
-88.900000	-0.004657	-2.963333	2.958676	-0.027410 	0.001857
-88.850000	-0.004711	-2.961667	2.956956	-0.027410 	0.001858
-88.800000	-0.004766	-2.960000	2.955234	-0.027410 	0.001858
-88.750000	-0.004820	-2.958333	2.953513	-0.027410 	0.001859
-88.700000	-0.004875	-2.956667	2.951792	-0.027409 	0.001859
-88.650000	-0.004930	-2.955000	2.950070	-0.027409 	0.001860
-88.600000	-0.004984	-2.953333	2.948349	-0.027408 	0.001860
-88.550000	-0.005039	-2.951667	2.946628	-0.027407 	0.001861
-88.500000	-0.005093	-2.950000	2.944907	-0.027406 	0.001861
-88.450000	-0.005148	-2.948333	2.943185	-0.027405 	0.001862
-88.400000	-0.005203	-2.946667	2.941464	-0.027403 	0.001863
-88.350000	-0.005257	-2.945000	2.939743	-0.027402 	0.001863
-88.300000	-0.005312	-2.943333	2.938021	-0.027400 	0.001864
-88.250000	-0.005366	-2.941667	2.936301	-0.027398 	0.001864
-88.200000	-0.005421	-2.940000	2.934579	-0.027396 	0.001865
-88.150000	-0.005475	-2.938333	2.932858	-0.027393 	0.001865
-88.100000	-0.005530	-2.936667	2.931137	-0.027391 	0.001866
-88.050000	-0.005584	-2.935000	2.929416	-0.027388 	0.001866
-88.000000	-0.005639	-2.933333	2.927694	-0.027385 	0.001867
-87.950000	-0.005694	-2.931667	2.925973	-0.027382 	0.001867
-87.900000	-0.005748	-2.930000	2.924252	-0.027379 	0.001868
-87.850000	-0.005803	-2.928333	2.922530	-0.027375 	0.001869
-87.800000	-0.005857	-2.926667	2.920810	-0.027372 	0.001869
-87.750000	-0.005912	-2.925000	2.919088	-0.027368 	0.001870
-87.700000	-0.005966	-2.923333	2.917367	-0.027364 	0.001870
-87.650000	-0.006021	-2.921667	2.915646	-0.027360 	0.001871
-87.600000	-0.006075	-2.920000	2.913925	-0.027356 	0.001871
-87.550000	-0.006130	-2.918333	2.912203	-0.027351 	0.001872
-87.500000	-0.006184	-2.916667	2.910483	-0.027346 	0.001872
-87.450000	-0.006239	-2.915000	2.908761	-0.027341 	0.001873
-87.400000	-0.006293	-2.913333	2.907040	-0.027336 	0.001874
-87.350000	-0.006348	-2.911667	2.905319	-0.027331 	0.001874
-87.300000	-0.006402	-2.910000	2.903598	-0.027326 	0.001875
-87.250000	-0.006457	-2.908333	2.901876	-0.027320 	0.001875
-87.200000	-0.006511	-2.906667	2.900156	-0.027314 	0.001876
-87.150000	-0.006565	-2.905000	2.898435	-0.027308 	0.001876
-87.100000	-0.006620	-2.903333	2.896713	-0.027302 	0.001877
-87.050000	-0.006674	-2.901667	2.894993	-0.027296 	0.001877
-87.000000	-0.006729	-2.900000	2.893271	-0.027289 	0.001878
-86.950000	-0.006783	-2.898333	2.891550	-0.027283 	0.001879
-86.900000	-0.006837	-2.896667	2.889830	-0.027276 	0.001879
-86.850000	-0.006892	-2.895000	2.888108	-0.027269 	0.001880
-86.800000	-0.006946	-2.893333	2.886387	-0.027261 	0.001880
-86.750000	-0.007000	-2.891667	2.884667	-0.027254 	0.001881
-86.700000	-0.007055	-2.890000	2.882945	-0.027246 	0.001881
-86.650000	-0.007109	-2.888333	2.881224	-0.027238 	0.001882
-86.600000	-0.007163	-2.886667	2.879504	-0.027230 	0.001882
-86.550000	-0.007218	-2.885000	2.877782	-0.027222 	0.001883
-86.500000	-0.007272	-2.883333	2.876061	-0.027214 	0.001884
-86.450000	-0.007326	-2.881667	2.874341	-0.027205 	0.001884
-86.400000	-0.007380	-2.880000	2.872620	-0.027196 	0.001885
-86.350000	-0.007435	-2.878333	2.870898	-0.027187 	0.001885
-86.300000	-0.007489	-2.876667	2.869178	-0.027178 	0.001886
-86.250000	-0.007543	-2.875000	2.867457	-0.027169 	0.001886
-86.200000	-0.007597	-2.873333	2.865736	-0.027159 	0.001887
-86.150000	-0.007651	-2.871667	2.864016	-0.027150 	0.001888
-86.100000	-0.007705	-2.870000	2.862295	-0.027140 	0.001888
-86.050000	-0.007759	-2.868333	2.860574	-0.027130 	0.001889
-86.000000	-0.007814	-2.866667	2.858853	-0.027119 	0.001889
-85.950000	-0.007868	-2.865000	2.857132	-0.027109 	0.001890
-85.900000	-0.007922	-2.863333	2.855411	-0.027098 	0.001890
-85.850000	-0.007976	-2.861667	2.853691	-0.027087 	0.001891
-85.800000	-0.008030	-2.860000	2.851970	-0.027076 	0.001892
-85.750000	-0.008084	-2.858333	2.850249	-0.027065 	0.001892
-85.700000	-0.008138	-2.856667	2.848529	-0.027054 	0.001893
-85.650000	-0.008192	-2.855000	2.846808	-0.027042 	0.001893
-85.600000	-0.008246	-2.853333	2.845087	-0.027030 	0.001894
-85.550000	-0.008300	-2.851667	2.843367	-0.027018 	0.001894
-85.500000	-0.008354	-2.850000	2.841646	-0.027006 	0.001895
-85.450000	-0.008407	-2.848333	2.839926	-0.026994 	0.001896
-85.400000	-0.008461	-2.846667	2.838206	-0.026981 	0.001896
-85.350000	-0.008515	-2.845000	2.836485	-0.026968 	0.001897
-85.300000	-0.008569	-2.843333	2.834764	-0.026955 	0.001897
-85.250000	-0.008623	-2.841667	2.833044	-0.026942 	0.001898
-85.200000	-0.008676	-2.840000	2.831324	-0.026929 	0.001898
-85.150000	-0.008730	-2.838333	2.829603	-0.026915 	0.001899
-85.100000	-0.008784	-2.836667	2.827883	-0.026901 	0.001900
-85.050000	-0.008838	-2.835000	2.826162	-0.026887 	0.001900
-85.000000	-0.008891	-2.833333	2.824442	-0.026873 	0.001901
-84.950000	-0.008945	-2.831667	2.822722	-0.026859 	0.001901
-84.900000	-0.008999	-2.830000	2.821001	-0.026844 	0.001902
-84.850000	-0.009052	-2.828333	2.819281	-0.026830 	0.001902
-84.800000	-0.009106	-2.826667	2.817561	-0.026815 	0.001903
-84.750000	-0.009159	-2.825000	2.815841	-0.026800 	0.001904
-84.700000	-0.009213	-2.823333	2.814120	-0.026784 	0.001904
-84.650000	-0.009266	-2.821667	2.812401	-0.026769 	0.001905
-84.600000	-0.009320	-2.820000	2.810680	-0.026753 	0.001905
-84.550000	-0.009373	-2.818333	2.808960	-0.026737 	0.001906
-84.500000	-0.009426	-2.816667	2.807241	-0.026721 	0.001907
-84.450000	-0.009480	-2.815000	2.805520	-0.026705 	0.001907
-84.400000	-0.009533	-2.813333	2.803800	-0.026688 	0.001908
-84.350000	-0.009586	-2.811667	2.802081	-0.026672 	0.001908
-84.300000	-0.009640	-2.810000	2.800360	-0.026655 	0.001909
-84.250000	-0.009693	-2.808333	2.798640	-0.026637 	0.001909
-84.200000	-0.009746	-2.806667	2.796921	-0.026620 	0.001910
-84.150000	-0.009799	-2.805000	2.795201	-0.026603 	0.001911
-84.100000	-0.009853	-2.803333	2.793480	-0.026585 	0.001911
-84.050000	-0.009906	-2.801667	2.791761	-0.026567 	0.001912
-84.000000	-0.009959	-2.800000	2.790041	-0.026549 	0.001912
-83.950000	-0.010012	-2.798333	2.788321	-0.026531 	0.001913
-83.900000	-0.010065	-2.796667	2.786602	-0.026512 	0.001914
-83.850000	-0.010118	-2.795000	2.784882	-0.026493 	0.001914
-83.800000	-0.010171	-2.793333	2.783162	-0.026474 	0.001915
-83.750000	-0.010224	-2.791667	2.781443	-0.026455 	0.001915
-83.700000	-0.010277	-2.790000	2.779723	-0.026436 	0.001916
-83.650000	-0.010329	-2.788333	2.778004	-0.026417 	0.001917
-83.600000	-0.010382	-2.786667	2.776285	-0.026397 	0.001917
-83.550000	-0.010435	-2.785000	2.774565	-0.026377 	0.001918
-83.500000	-0.010488	-2.783333	2.772845	-0.026357 	0.001918
-83.450000	-0.010541	-2.781667	2.771126	-0.026336 	0.001919
-83.400000	-0.010593	-2.780000	2.769407	-0.026316 	0.001920
-83.350000	-0.010646	-2.778333	2.767687	-0.026295 	0.001920
-83.300000	-0.010698	-2.776667	2.765969	-0.026274 	0.001921
-83.250000	-0.010751	-2.775000	2.764249	-0.026253 	0.001921
-83.200000	-0.010804	-2.773333	2.762529	-0.026232 	0.001922
-83.150000	-0.010856	-2.771667	2.760811	-0.026210 	0.001923
-83.100000	-0.010908	-2.770000	2.759092	-0.026188 	0.001923
-83.050000	-0.010961	-2.768333	2.757372	-0.026166 	0.001924
-83.000000	-0.011013	-2.766667	2.755654	-0.026144 	0.001924
-82.950000	-0.011066	-2.765000	2.753934	-0.026122 	0.001925
-82.900000	-0.011118	-2.763333	2.752215	-0.026099 	0.001926
-82.850000	-0.011170	-2.761667	2.750497	-0.026077 	0.001926
-82.800000	-0.011222	-2.760000	2.748778	-0.026054 	0.001927
-82.750000	-0.011275	-2.758333	2.747058	-0.026030 	0.001927
-82.700000	-0.011327	-2.756667	2.745340	-0.026007 	0.001928
-82.650000	-0.011379	-2.755000	2.743621	-0.025983 	0.001929
-82.600000	-0.011431	-2.753333	2.741902	-0.025960 	0.001929
-82.550000	-0.011483	-2.751667	2.740184	-0.025936 	0.001930
-82.500000	-0.011535	-2.750000	2.738465	-0.025911 	0.001930
-82.450000	-0.011587	-2.748333	2.736746	-0.025887 	0.001931
-82.400000	-0.011638	-2.746667	2.735029	-0.025862 	0.001932
-82.350000	-0.011690	-2.745000	2.733310	-0.025837 	0.001932
-82.300000	-0.011742	-2.743333	2.731591	-0.025812 	0.001933
-82.250000	-0.011794	-2.741667	2.729873	-0.025787 	0.001933
-82.200000	-0.011845	-2.740000	2.728155	-0.025762 	0.001934
-82.150000	-0.011897	-2.738333	2.726436	-0.025736 	0.001935
-82.100000	-0.011949	-2.736667	2.724718	-0.025710 	0.001935
-82.050000	-0.012000	-2.735000	2.723000	-0.025684 	0.001936
-82.000000	-0.012052	-2.733333	2.721281	-0.025658 	0.001936
-81.950000	-0.012103	-2.731667	2.719564	-0.025631 	0.001937
-81.900000	-0.012155	-2.730000	2.717845	-0.025605 	0.001938
-81.850000	-0.012206	-2.728333	2.716127	-0.025578 	0.001938
-81.800000	-0.012257	-2.726667	2.714410	-0.025551 	0.001939
-81.750000	-0.012308	-2.725000	2.712692	-0.025523 	0.001939
-81.700000	-0.012360	-2.723333	2.710973	-0.025496 	0.001940
-81.650000	-0.012411	-2.721667	2.709256	-0.025468 	0.001941
-81.600000	-0.012462	-2.720000	2.707538	-0.025440 	0.001941
-81.550000	-0.012513	-2.718333	2.705820	-0.025412 	0.001942
-81.500000	-0.012564	-2.716667	2.704103	-0.025383 	0.001943
-81.450000	-0.012615	-2.715000	2.702385	-0.025355 	0.001943
-81.400000	-0.012666	-2.713333	2.700667	-0.025326 	0.001944
-81.350000	-0.012717	-2.711667	2.698950	-0.025297 	0.001944
-81.300000	-0.012767	-2.710000	2.697233	-0.025268 	0.001945
-81.250000	-0.012818	-2.708333	2.695515	-0.025238 	0.001946
-81.200000	-0.012869	-2.706667	2.693798	-0.025209 	0.001946
-81.150000	-0.012920	-2.705000	2.692080	-0.025179 	0.001947
-81.100000	-0.012970	-2.703333	2.690363	-0.025149 	0.001948
-81.050000	-0.013021	-2.701667	2.688646	-0.025119 	0.001948
-81.000000	-0.013071	-2.700000	2.686929	-0.025088 	0.001949
-80.950000	-0.013121	-2.698333	2.685212	-0.025057 	0.001949
-80.900000	-0.013172	-2.696667	2.683495	-0.025027 	0.001950
-80.850000	-0.013222	-2.695000	2.681778	-0.024995 	0.001951
-80.800000	-0.013272	-2.693333	2.680061	-0.024964 	0.001951
-80.750000	-0.013323	-2.691667	2.678344	-0.024933 	0.001952
-80.700000	-0.013373	-2.690000	2.676627	-0.024901 	0.001953
-80.650000	-0.013423	-2.688333	2.674910	-0.024869 	0.001953
-80.600000	-0.013473	-2.686667	2.673194	-0.024837 	0.001954
-80.550000	-0.013523	-2.685000	2.671477	-0.024804 	0.001954
-80.500000	-0.013573	-2.683333	2.669760	-0.024772 	0.001955
-80.450000	-0.013622	-2.681667	2.668045	-0.024739 	0.001956
-80.400000	-0.013672	-2.680000	2.666328	-0.024706 	0.001956
-80.350000	-0.013722	-2.678333	2.664611	-0.024673 	0.001957
-80.300000	-0.013772	-2.676667	2.662895	-0.024639 	0.001958
-80.250000	-0.013821	-2.675000	2.661179	-0.024606 	0.001958
-80.200000	-0.013871	-2.673333	2.659462	-0.024572 	0.001959
-80.150000	-0.013920	-2.671667	2.657747	-0.024538 	0.001959
-80.100000	-0.013970	-2.670000	2.656030	-0.024503 	0.001960
-80.050000	-0.014019	-2.668333	2.654314	-0.024469 	0.001961
-80.000000	-0.014068	-2.666667	2.652599	-0.024434 	0.001961
-79.950000	-0.014117	-2.665000	2.650883	-0.024399 	0.001962
-79.900000	-0.014166	-2.663333	2.649167	-0.024364 	0.001963
-79.850000	-0.014216	-2.661667	2.647451	-0.024329 	0.001963
-79.800000	-0.014265	-2.660000	2.645735	-0.024293 	0.001964
-79.750000	-0.014314	-2.658333	2.644019	-0.024257 	0.001965
-79.700000	-0.014362	-2.656667	2.642305	-0.024221 	0.001965
-79.650000	-0.014411	-2.655000	2.640589	-0.024185 	0.001966
-79.600000	-0.014460	-2.653333	2.638873	-0.024149 	0.001966
-79.550000	-0.014509	-2.651667	2.637158	-0.024112 	0.001967
-79.500000	-0.014557	-2.650000	2.635443	-0.024075 	0.001968
-79.450000	-0.014606	-2.648333	2.633727	-0.024038 	0.001968
-79.400000	-0.014654	-2.646667	2.632013	-0.024001 	0.001969
-79.350000	-0.014703	-2.645000	2.630297	-0.023963 	0.001970
-79.300000	-0.014751	-2.643333	2.628582	-0.023925 	0.001970
-79.250000	-0.014799	-2.641667	2.626868	-0.023888 	0.001971
-79.200000	-0.014848	-2.640000	2.625152	-0.023849 	0.001972
-79.150000	-0.014896	-2.638333	2.623437	-0.023811 	0.001972
-79.100000	-0.014944	-2.636667	2.621723	-0.023772 	0.001973
-79.050000	-0.014992	-2.635000	2.620008	-0.023734 	0.001973
-79.000000	-0.015040	-2.633333	2.618293	-0.023695 	0.001974
-78.950000	-0.015088	-2.631667	2.616579	-0.023655 	0.001975
-78.900000	-0.015135	-2.630000	2.614865	-0.023616 	0.001975
-78.850000	-0.015183	-2.628333	2.613150	-0.023576 	0.001976
-78.800000	-0.015231	-2.626667	2.611436	-0.023536 	0.001977
-78.750000	-0.015278	-2.625000	2.609722	-0.023496 	0.001977
-78.700000	-0.015326	-2.623333	2.608007	-0.023456 	0.001978
-78.650000	-0.015373	-2.621667	2.606294	-0.023415 	0.001979
-78.600000	-0.015421	-2.620000	2.604579	-0.023375 	0.001979
-78.550000	-0.015468	-2.618333	2.602865	-0.023334 	0.001980
-78.500000	-0.015515	-2.616667	2.601152	-0.023293 	0.001981
-78.450000	-0.015562	-2.615000	2.599438	-0.023251 	0.001981
-78.400000	-0.015609	-2.613333	2.597724	-0.023210 	0.001982
-78.350000	-0.015656	-2.611667	2.596011	-0.023168 	0.001983
-78.300000	-0.015703	-2.610000	2.594297	-0.023126 	0.001983
-78.250000	-0.015750	-2.608333	2.592583	-0.023083 	0.001984
-78.200000	-0.015797	-2.606667	2.590870	-0.023041 	0.001985
-78.150000	-0.015843	-2.605000	2.589157	-0.022998 	0.001985
-78.100000	-0.015890	-2.603333	2.587443	-0.022955 	0.001986
-78.050000	-0.015936	-2.601667	2.585731	-0.022912 	0.001987
-78.000000	-0.015983	-2.600000	2.584017	-0.022869 	0.001987
-77.950000	-0.016029	-2.598333	2.582304	-0.022825 	0.001988
-77.900000	-0.016075	-2.596667	2.580592	-0.022782 	0.001989
-77.850000	-0.016122	-2.595000	2.578878	-0.022738 	0.001989
-77.800000	-0.016168	-2.593333	2.577165	-0.022693 	0.001990
-77.750000	-0.016214	-2.591667	2.575453	-0.022649 	0.001990
-77.700000	-0.016260	-2.590000	2.573740	-0.022604 	0.001991
-77.650000	-0.016306	-2.588333	2.572027	-0.022559 	0.001992
-77.600000	-0.016351	-2.586667	2.570316	-0.022514 	0.001992
-77.550000	-0.016397	-2.585000	2.568603	-0.022469 	0.001993
-77.500000	-0.016443	-2.583333	2.566890	-0.022423 	0.001994
-77.450000	-0.016488	-2.581667	2.565179	-0.022378 	0.001994
-77.400000	-0.016534	-2.580000	2.563466	-0.022332 	0.001995
-77.350000	-0.016579	-2.578333	2.561754	-0.022286 	0.001996
-77.300000	-0.016624	-2.576667	2.560043	-0.022239 	0.001996
-77.250000	-0.016669	-2.575000	2.558331	-0.022193 	0.001997
-77.200000	-0.016715	-2.573333	2.556618	-0.022146 	0.001998
-77.150000	-0.016760	-2.571667	2.554907	-0.022099 	0.001998
-77.100000	-0.016805	-2.570000	2.553195	-0.022051 	0.001999
-77.050000	-0.016849	-2.568333	2.551484	-0.022004 	0.002000
-77.000000	-0.016894	-2.566667	2.549773	-0.021956 	0.002000
-76.950000	-0.016939	-2.565000	2.548061	-0.021908 	0.002001
-76.900000	-0.016983	-2.563333	2.546350	-0.021860 	0.002002
-76.850000	-0.017028	-2.561667	2.544639	-0.021812 	0.002003
-76.800000	-0.017072	-2.560000	2.542928	-0.021763 	0.002003
-76.750000	-0.017117	-2.558333	2.541216	-0.021714 	0.002004
-76.700000	-0.017161	-2.556667	2.539506	-0.021665 	0.002005
-76.650000	-0.017205	-2.555000	2.537795	-0.021616 	0.002005
-76.600000	-0.017249	-2.553333	2.536084	-0.021567 	0.002006
-76.550000	-0.017293	-2.551667	2.534374	-0.021517 	0.002007
-76.500000	-0.017337	-2.550000	2.532663	-0.021467 	0.002007
-76.450000	-0.017381	-2.548333	2.530952	-0.021417 	0.002008
-76.400000	-0.017424	-2.546667	2.529243	-0.021367 	0.002009
-76.350000	-0.017468	-2.545000	2.527532	-0.021316 	0.002009
-76.300000	-0.017511	-2.543333	2.525822	-0.021266 	0.002010
-76.250000	-0.017555	-2.541667	2.524112	-0.021215 	0.002011
-76.200000	-0.017598	-2.540000	2.522402	-0.021164 	0.002011
-76.150000	-0.017641	-2.538333	2.520692	-0.021112 	0.002012
-76.100000	-0.017684	-2.536667	2.518983	-0.021061 	0.002013
-76.050000	-0.017727	-2.535000	2.517273	-0.021009 	0.002013
-76.000000	-0.017770	-2.533333	2.515563	-0.020957 	0.002014
-75.950000	-0.017813	-2.531667	2.513854	-0.020904 	0.002015
-75.900000	-0.017856	-2.530000	2.512144	-0.020852 	0.002015
-75.850000	-0.017898	-2.528333	2.510435	-0.020799 	0.002016
-75.800000	-0.017941	-2.526667	2.508726	-0.020746 	0.002017
-75.750000	-0.017983	-2.525000	2.507017	-0.020693 	0.002017
-75.700000	-0.018026	-2.523333	2.505307	-0.020640 	0.002018
-75.650000	-0.018068	-2.521667	2.503599	-0.020586 	0.002019
-75.600000	-0.018110	-2.520000	2.501890	-0.020533 	0.002020
-75.550000	-0.018152	-2.518333	2.500181	-0.020479 	0.002020
-75.500000	-0.018194	-2.516667	2.498473	-0.020424 	0.002021
-75.450000	-0.018236	-2.515000	2.496764	-0.020370 	0.002022
-75.400000	-0.018278	-2.513333	2.495055	-0.020315 	0.002022
-75.350000	-0.018319	-2.511667	2.493348	-0.020260 	0.002023
-75.300000	-0.018361	-2.510000	2.491639	-0.020205 	0.002024
-75.250000	-0.018402	-2.508333	2.489931	-0.020150 	0.002024
-75.200000	-0.018443	-2.506667	2.488224	-0.020095 	0.002025
-75.150000	-0.018485	-2.505000	2.486515	-0.020039 	0.002026
-75.100000	-0.018526	-2.503333	2.484807	-0.019983 	0.002026
-75.050000	-0.018567	-2.501667	2.483100	-0.019927 	0.002027