VARIABLES = X,Ksi,B,H,U,tau 
ZONE T="Time 20.000000", I=2200, DATAPACKING=POINT
-100.000000	-0.001542	-3.333333	3.331791	0.037843 	0.001750
-99.950000	-0.003164	-3.331667	3.328503	0.040712 	0.001751
-99.900000	-0.002431	-3.330000	3.327569	0.039538 	0.001751
-99.850000	-0.002715	-3.328333	3.325618	0.040109 	0.001752
-99.800000	-0.002560	-3.326667	3.324107	0.039926 	0.001752
-99.750000	-0.002594	-3.325000	3.322406	0.040069 	0.001753
-99.700000	-0.002546	-3.323333	3.320787	0.040070 	0.001753
-99.650000	-0.002534	-3.321667	3.319133	0.040133 	0.001753
-99.600000	-0.002506	-3.320000	3.317494	0.040169 	0.001754
-99.550000	-0.002485	-3.318333	3.315848	0.040216 	0.001754
-99.500000	-0.002461	-3.316667	3.314206	0.040258 	0.001755
-99.450000	-0.002438	-3.315000	3.312562	0.040302 	0.001755
-99.400000	-0.002415	-3.313333	3.310918	0.040345 	0.001756
-99.350000	-0.002391	-3.311667	3.309276	0.040388 	0.001756
-99.300000	-0.002368	-3.310000	3.307632	0.040431 	0.001756
-99.250000	-0.002345	-3.308333	3.305988	0.040474 	0.001757
-99.200000	-0.002321	-3.306667	3.304346	0.040517 	0.001757
-99.150000	-0.002298	-3.305000	3.302702	0.040559 	0.001758
-99.100000	-0.002275	-3.303333	3.301058	0.040601 	0.001758
-99.050000	-0.002251	-3.301667	3.299416	0.040644 	0.001759
-99.000000	-0.002228	-3.300000	3.297772	0.040686 	0.001759
-98.950000	-0.002204	-3.298333	3.296129	0.040727 	0.001759
-98.900000	-0.002181	-3.296667	3.294486	0.040769 	0.001760
-98.850000	-0.002157	-3.295000	3.292843	0.040811 	0.001760
-98.800000	-0.002134	-3.293333	3.291199	0.040852 	0.001761
-98.750000	-0.002110	-3.291667	3.289557	0.040893 	0.001761
-98.700000	-0.002087	-3.290000	3.287913	0.040935 	0.001762
-98.650000	-0.002063	-3.288333	3.286270	0.040975 	0.001762
-98.600000	-0.002039	-3.286667	3.284628	0.041016 	0.001763
-98.550000	-0.002015	-3.285000	3.282985	0.041057 	0.001763
-98.500000	-0.001992	-3.283333	3.281341	0.041097 	0.001763
-98.450000	-0.001968	-3.281667	3.279699	0.041138 	0.001764
-98.400000	-0.001944	-3.280000	3.278056	0.041178 	0.001764
-98.350000	-0.001920	-3.278333	3.276413	0.041218 	0.001765
-98.300000	-0.001896	-3.276667	3.274771	0.041258 	0.001765
-98.250000	-0.001873	-3.275000	3.273127	0.041297 	0.001766
-98.200000	-0.001849	-3.273333	3.271484	0.041337 	0.001766
-98.150000	-0.001825	-3.271667	3.269842	0.041376 	0.001767
-98.100000	-0.001801	-3.270000	3.268199	0.041415 	0.001767
-98.050000	-0.001777	-3.268333	3.266556	0.041455 	0.001767
-98.000000	-0.001753	-3.266667	3.264914	0.041493 	0.001768
-97.950000	-0.001729	-3.265000	3.263271	0.041532 	0.001768
-97.900000	-0.001705	-3.263333	3.261628	0.041571 	0.001769
-97.850000	-0.001681	-3.261667	3.259986	0.041609 	0.001769
-97.800000	-0.001656	-3.260000	3.258344	0.041647 	0.001770
-97.750000	-0.001632	-3.258333	3.256701	0.041685 	0.001770
-97.700000	-0.001608	-3.256667	3.255059	0.041723 	0.001771
-97.650000	-0.001584	-3.255000	3.253416	0.041761 	0.001771
-97.600000	-0.001560	-3.253333	3.251773	0.041798 	0.001771
-97.550000	-0.001535	-3.251667	3.250132	0.041836 	0.001772
-97.500000	-0.001511	-3.250000	3.248489	0.041873 	0.001772
-97.450000	-0.001487	-3.248333	3.246846	0.041910 	0.001773
-97.400000	-0.001463	-3.246667	3.245204	0.041947 	0.001773
-97.350000	-0.001438	-3.245000	3.243562	0.041984 	0.001774
-97.300000	-0.001414	-3.243333	3.241919	0.042020 	0.001774
-97.250000	-0.001389	-3.241667	3.240278	0.042057 	0.001775
-97.200000	-0.001365	-3.240000	3.238635	0.042093 	0.001775
-97.150000	-0.001341	-3.238333	3.236992	0.042129 	0.001775
-97.100000	-0.001316	-3.236667	3.235351	0.042165 	0.001776
-97.050000	-0.001292	-3.235000	3.233708	0.042201 	0.001776
-97.000000	-0.001267	-3.233333	3.232066	0.042236 	0.001777
-96.950000	-0.001243	-3.231667	3.230424	0.042271 	0.001777
-96.900000	-0.001218	-3.230000	3.228782	0.042307 	0.001778
-96.850000	-0.001193	-3.228333	3.227140	0.042342 	0.001778
-96.800000	-0.001169	-3.226667	3.225498	0.042377 	0.001779
-96.750000	-0.001144	-3.225000	3.223856	0.042411 	0.001779
-96.700000	-0.001119	-3.223333	3.222214	0.042446 	0.001780
-96.650000	-0.001095	-3.221667	3.220572	0.042480 	0.001780
-96.600000	-0.001070	-3.220000	3.218930	0.042514 	0.001780
-96.550000	-0.001045	-3.218333	3.217288	0.042548 	0.001781
-96.500000	-0.001020	-3.216667	3.215647	0.042582 	0.001781
-96.450000	-0.000996	-3.215000	3.214004	0.042616 	0.001782
-96.400000	-0.000971	-3.213333	3.212362	0.042649 	0.001782
-96.350000	-0.000946	-3.211667	3.210721	0.042683 	0.001783
-96.300000	-0.000921	-3.210000	3.209079	0.042716 	0.001783
-96.250000	-0.000896	-3.208333	3.207437	0.042749 	0.001784
-96.200000	-0.000871	-3.206667	3.205796	0.042781 	0.001784
-96.150000	-0.000846	-3.205000	3.204154	0.042814 	0.001785
-96.100000	-0.000821	-3.203333	3.202512	0.042846 	0.001785
-96.050000	-0.000796	-3.201667	3.200871	0.042878 	0.001785
-96.000000	-0.000771	-3.200000	3.199229	0.042911 	0.001786
-95.950000	-0.000746	-3.198333	3.197587	0.042942 	0.001786
-95.900000	-0.000721	-3.196667	3.195946	0.042974 	0.001787
-95.850000	-0.000696	-3.195000	3.194304	0.043006 	0.001787
-95.800000	-0.000671	-3.193333	3.192662	0.043037 	0.001788
-95.750000	-0.000646	-3.191667	3.191021	0.043068 	0.001788
-95.700000	-0.000621	-3.190000	3.189379	0.043099 	0.001789
-95.650000	-0.000596	-3.188333	3.187737	0.043130 	0.001789
-95.600000	-0.000571	-3.186667	3.186096	0.043160 	0.001790
-95.550000	-0.000546	-3.185000	3.184454	0.043191 	0.001790
-95.500000	-0.000520	-3.183333	3.182813	0.043221 	0.001791
-95.450000	-0.000495	-3.181667	3.181172	0.043251 	0.001791
-95.400000	-0.000470	-3.180000	3.179530	0.043281 	0.001791
-95.350000	-0.000445	-3.178333	3.177888	0.043311 	0.001792
-95.300000	-0.000419	-3.176667	3.176248	0.043340 	0.001792
-95.250000	-0.000394	-3.175000	3.174606	0.043369 	0.001793
-95.200000	-0.000369	-3.173333	3.172964	0.043398 	0.001793
-95.150000	-0.000343	-3.171667	3.171324	0.043427 	0.001794
-95.100000	-0.000318	-3.170000	3.169682	0.043456 	0.001794
-95.050000	-0.000293	-3.168333	3.168040	0.043485 	0.001795
-95.000000	-0.000267	-3.166667	3.166400	0.043513 	0.001795
-94.950000	-0.000242	-3.165000	3.164758	0.043541 	0.001796
-94.900000	-0.000216	-3.163333	3.163117	0.043569 	0.001796
-94.850000	-0.000191	-3.161667	3.161476	0.043597 	0.001797
-94.800000	-0.000165	-3.160000	3.159835	0.043625 	0.001797
-94.750000	-0.000140	-3.158333	3.158193	0.043652 	0.001797
-94.700000	-0.000114	-3.156667	3.156553	0.043679 	0.001798
-94.650000	-0.000089	-3.155000	3.154911	0.043706 	0.001798
-94.600000	-0.000063	-3.153333	3.153270	0.043733 	0.001799
-94.550000	-0.000037	-3.151667	3.151630	0.043760 	0.001799
-94.500000	-0.000012	-3.150000	3.149988	0.043786 	0.001800
-94.450000	0.000014	-3.148333	3.148347	0.043813 	0.001800
-94.400000	0.000039	-3.146667	3.146706	0.043839 	0.001801
-94.350000	0.000065	-3.145000	3.145065	0.043865 	0.001801
-94.300000	0.000091	-3.143333	3.143424	0.043890 	0.001802
-94.250000	0.000116	-3.141667	3.141783	0.043916 	0.001802
-94.200000	0.000142	-3.140000	3.140142	0.043941 	0.001803
-94.150000	0.000168	-3.138333	3.138501	0.043966 	0.001803
-94.100000	0.000194	-3.136667	3.136861	0.043991 	0.001804
-94.050000	0.000219	-3.135000	3.135219	0.044016 	0.001804
-94.000000	0.000245	-3.133333	3.133578	0.044041 	0.001805
-93.950000	0.000271	-3.131667	3.131938	0.044065 	0.001805
-93.900000	0.000297	-3.130000	3.130297	0.044089 	0.001805
-93.850000	0.000323	-3.128333	3.128656	0.044113 	0.001806
-93.800000	0.000348	-3.126667	3.127015	0.044137 	0.001806
-93.750000	0.000374	-3.125000	3.125374	0.044160 	0.001807
-93.700000	0.000400	-3.123333	3.123733	0.044184 	0.001807
-93.650000	0.000426	-3.121667	3.122093	0.044207 	0.001808
-93.600000	0.000452	-3.120000	3.120452	0.044230 	0.001808
-93.550000	0.000478	-3.118333	3.118811	0.044253 	0.001809
-93.500000	0.000504	-3.116667	3.117171	0.044275 	0.001809
-93.450000	0.000530	-3.115000	3.115530	0.044298 	0.001810
-93.400000	0.000556	-3.113333	3.113889	0.044320 	0.001810
-93.350000	0.000582	-3.111667	3.112249	0.044342 	0.001811
-93.300000	0.000608	-3.110000	3.110608	0.044364 	0.001811
-93.250000	0.000634	-3.108333	3.108967	0.044385 	0.001812
-93.200000	0.000660	-3.106667	3.107327	0.044407 	0.001812
-93.150000	0.000686	-3.105000	3.105686	0.044428 	0.001813
-93.100000	0.000712	-3.103333	3.104045	0.044449 	0.001813
-93.050000	0.000738	-3.101667	3.102405	0.044469 	0.001814
-93.000000	0.000764	-3.100000	3.100764	0.044490 	0.001814
-92.950000	0.000790	-3.098333	3.099123	0.044510 	0.001815
-92.900000	0.000816	-3.096667	3.097483	0.044530 	0.001815
-92.850000	0.000843	-3.095000	3.095843	0.044550 	0.001816
-92.800000	0.000869	-3.093333	3.094202	0.044570 	0.001816
-92.750000	0.000895	-3.091667	3.092562	0.044590 	0.001816
-92.700000	0.000921	-3.090000	3.090921	0.044609 	0.001817
-92.650000	0.000947	-3.088333	3.089280	0.044628 	0.001817
-92.600000	0.000973	-3.086667	3.087640	0.044647 	0.001818
-92.550000	0.001000	-3.085000	3.086000	0.044666 	0.001818
-92.500000	0.001026	-3.083333	3.084359	0.044684 	0.001819
-92.450000	0.001052	-3.081667	3.082719	0.044703 	0.001819
-92.400000	0.001078	-3.080000	3.081078	0.044721 	0.001820
-92.350000	0.001105	-3.078333	3.079438	0.044738 	0.001820
-92.300000	0.001131	-3.076667	3.077798	0.044756 	0.001821
-92.250000	0.001157	-3.075000	3.076157	0.044774 	0.001821
-92.200000	0.001184	-3.073333	3.074517	0.044791 	0.001822
-92.150000	0.001210	-3.071667	3.072877	0.044808 	0.001822
-92.100000	0.001236	-3.070000	3.071236	0.044825 	0.001823
-92.050000	0.001263	-3.068333	3.069596	0.044841 	0.001823
-92.000000	0.001289	-3.066667	3.067956	0.044858 	0.001824
-91.950000	0.001315	-3.065000	3.066315	0.044874 	0.001824
-91.900000	0.001342	-3.063333	3.064675	0.044890 	0.001825
-91.850000	0.001368	-3.061667	3.063035	0.044906 	0.001825
-91.800000	0.001394	-3.060000	3.061394	0.044921 	0.001826
-91.750000	0.001421	-3.058333	3.059754	0.044936 	0.001826
-91.700000	0.001447	-3.056667	3.058114	0.044952 	0.001827
-91.650000	0.001474	-3.055000	3.056474	0.044966 	0.001827
-91.600000	0.001500	-3.053333	3.054833	0.044981 	0.001828
-91.550000	0.001527	-3.051667	3.053194	0.044996 	0.001828
-91.500000	0.001553	-3.050000	3.051553	0.045010 	0.001829
-91.450000	0.001579	-3.048333	3.049912	0.045024 	0.001829
-91.400000	0.001606	-3.046667	3.048273	0.045038 	0.001830
-91.350000	0.001632	-3.045000	3.046632	0.045051 	0.001830
-91.300000	0.001659	-3.043333	3.044992	0.045065 	0.001831
-91.250000	0.001685	-3.041667	3.043352	0.045078 	0.001831
-91.200000	0.001712	-3.040000	3.041712	0.045091 	0.001832
-91.150000	0.001738	-3.038333	3.040071	0.045104 	0.001832
-91.100000	0.001765	-3.036667	3.038432	0.045116 	0.001833
-91.050000	0.001792	-3.035000	3.036792	0.045128 	0.001833
-91.000000	0.001818	-3.033333	3.035151	0.045140 	0.001834
-90.950000	0.001845	-3.031667	3.033512	0.045152 	0.001834
-90.900000	0.001871	-3.030000	3.031871	0.045164 	0.001835
-90.850000	0.001898	-3.028333	3.030231	0.045175 	0.001835
-90.800000	0.001924	-3.026667	3.028591	0.045186 	0.001836
-90.750000	0.001951	-3.025000	3.026951	0.045197 	0.001836
-90.700000	0.001978	-3.023333	3.025311	0.045208 	0.001837
-90.650000	0.002004	-3.021667	3.023671	0.045219 	0.001837
-90.600000	0.002031	-3.020000	3.022031	0.045229 	0.001838
-90.550000	0.002057	-3.018333	3.020390	0.045239 	0.001838
-90.500000	0.002084	-3.016667	3.018751	0.045249 	0.001839
-90.450000	0.002111	-3.015000	3.017111	0.045259 	0.001839
-90.400000	0.002137	-3.013333	3.015470	0.045268 	0.001840
-90.350000	0.002164	-3.011667	3.013831	0.045277 	0.001840
-90.300000	0.002190	-3.010000	3.012190	0.045286 	0.001841
-90.250000	0.002217	-3.008333	3.010550	0.045295 	0.001841
-90.200000	0.002244	-3.006667	3.008911	0.045303 	0.001842
-90.150000	0.002270	-3.005000	3.007270	0.045312 	0.001842
-90.100000	0.002297	-3.003333	3.005630	0.045320 	0.001843
-90.050000	0.002324	-3.001667	3.003991	0.045327 	0.001843
-90.000000	0.002350	-3.000000	3.002350	0.045335 	0.001844
-89.950000	0.002377	-2.998333	3.000710	0.045342 	0.001844
-89.900000	0.002404	-2.996667	2.999071	0.045350 	0.001845
-89.850000	0.002431	-2.995000	2.997431	0.045356 	0.001845
-89.800000	0.002457	-2.993333	2.995790	0.045363 	0.001846
-89.750000	0.002484	-2.991667	2.994151	0.045370 	0.001846
-89.700000	0.002511	-2.990000	2.992511	0.045376 	0.001847
-89.650000	0.002537	-2.988333	2.990870	0.045382 	0.001847
-89.600000	0.002564	-2.986667	2.989231	0.045387 	0.001848
-89.550000	0.002591	-2.985000	2.987591	0.045393 	0.001848
-89.500000	0.002617	-2.983333	2.985950	0.045398 	0.001849
-89.450000	0.002644	-2.981667	2.984311	0.045403 	0.001849
-89.400000	0.002671	-2.980000	2.982671	0.045408 	0.001850
-89.350000	0.002698	-2.978333	2.981031	0.045413 	0.001850
-89.300000	0.002724	-2.976667	2.979391	0.045417 	0.001851
-89.250000	0.002751	-2.975000	2.977751	0.045421 	0.001851
-89.200000	0.002778	-2.973333	2.976111	0.045425 	0.001852
-89.150000	0.002805	-2.971667	2.974472	0.045429 	0.001852
-89.100000	0.002831	-2.970000	2.972831	0.045432 	0.001853
-89.050000	0.002858	-2.968333	2.971191	0.045435 	0.001853
-89.000000	0.002885	-2.966667	2.969552	0.045438 	0.001854
-88.950000	0.002912	-2.965000	2.967912	0.045441 	0.001854
-88.900000	0.002938	-2.963333	2.966271	0.045443 	0.001855
-88.850000	0.002965	-2.961667	2.964632	0.045446 	0.001855
-88.800000	0.002992	-2.960000	2.962992	0.045448 	0.001856
-88.750000	0.003019	-2.958333	2.961352	0.045449 	0.001856
-88.700000	0.003045	-2.956667	2.959712	0.045451 	0.001857
-88.650000	0.003072	-2.955000	2.958072	0.045452 	0.001857
-88.600000	0.003099	-2.953333	2.956432	0.045453 	0.001858
-88.550000	0.003126	-2.951667	2.954793	0.045454 	0.001858
-88.500000	0.003152	-2.950000	2.953152	0.045454 	0.001859
-88.450000	0.003179	-2.948333	2.951512	0.045455 	0.001859
-88.400000	0.003206	-2.946667	2.949873	0.045455 	0.001860
-88.350000	0.003233	-2.945000	2.948233	0.045455 	0.001860
-88.300000	0.003259	-2.943333	2.946592	0.045454 	0.001861
-88.250000	0.003286	-2.941667	2.944953	0.045454 	0.001861
-88.200000	0.003313	-2.940000	2.943313	0.045453 	0.001862
-88.150000	0.003339	-2.938333	2.941672	0.045452 	0.001862
-88.100000	0.003366	-2.936667	2.940033	0.045450 	0.001863
-88.050000	0.003393	-2.935000	2.938393	0.045449 	0.001864
-88.000000	0.003420	-2.933333	2.936753	0.045447 	0.001864
-87.950000	0.003446	-2.931667	2.935113	0.045445 	0.001865
-87.900000	0.003473	-2.930000	2.933473	0.045442 	0.001865
-87.850000	0.003500	-2.928333	2.931833	0.045440 	0.001866
-87.800000	0.003527	-2.926667	2.930194	0.045437 	0.001866
-87.750000	0.003553	-2.925000	2.928553	0.045434 	0.001867
-87.700000	0.003580	-2.923333	2.926913	0.045430 	0.001867
-87.650000	0.003607	-2.921667	2.925274	0.045427 	0.001868
-87.600000	0.003634	-2.920000	2.923634	0.045423 	0.001868
-87.550000	0.003660	-2.918333	2.921993	0.045419 	0.001869
-87.500000	0.003687	-2.916667	2.920354	0.045414 	0.001869
-87.450000	0.003714	-2.915000	2.918714	0.045410 	0.001870
-87.400000	0.003740	-2.913333	2.917073	0.045405 	0.001870
-87.350000	0.003767	-2.911667	2.915434	0.045400 	0.001871
-87.300000	0.003794	-2.910000	2.913794	0.045395 	0.001871
-87.250000	0.003820	-2.908333	2.912153	0.045389 	0.001872
-87.200000	0.003847	-2.906667	2.910514	0.045383 	0.001872
-87.150000	0.003874	-2.905000	2.908874	0.045377 	0.001873
-87.100000	0.003900	-2.903333	2.907233	0.045371 	0.001873
-87.050000	0.003927	-2.901667	2.905594	0.045364 	0.001874
-87.000000	0.003954	-2.900000	2.903954	0.045357 	0.001875
-86.950000	0.003980	-2.898333	2.902313	0.045350 	0.001875
-86.900000	0.004007	-2.896667	2.900674	0.045343 	0.001876
-86.850000	0.004034	-2.895000	2.899034	0.045335 	0.001876
-86.800000	0.004060	-2.893333	2.897393	0.045327 	0.001877
-86.750000	0.004087	-2.891667	2.895754	0.045319 	0.001877
-86.700000	0.004114	-2.890000	2.894114	0.045311 	0.001878
-86.650000	0.004140	-2.888333	2.892473	0.045302 	0.001878
-86.600000	0.004167	-2.886667	2.890834	0.045293 	0.001879
-86.550000	0.004193	-2.885000	2.889193	0.045284 	0.001879
-86.500000	0.004220	-2.883333	2.887553	0.045275 	0.001880
-86.450000	0.004247	-2.881667	2.885914	0.045265 	0.001880
-86.400000	0.004273	-2.880000	2.884273	0.045255 	0.001881
-86.350000	0.004300	-2.878333	2.882633	0.045245 	0.001881
-86.300000	0.004326	-2.876667	2.880993	0.045235 	0.001882
-86.250000	0.004353	-2.875000	2.879353	0.045224 	0.001883
-86.200000	0.004379	-2.873333	2.877712	0.045213 	0.001883
-86.150000	0.004406	-2.871667	2.876073	0.045202 	0.001884
-86.100000	0.004433	-2.870000	2.874433	0.045190 	0.001884
-86.050000	0.004459	-2.868333	2.872792	0.045179 	0.001885
-86.000000	0.004486	-2.866667	2.871153	0.045167 	0.001885
-85.950000	0.004512	-2.865000	2.869512	0.045154 	0.001886
-85.900000	0.004539	-2.863333	2.867872	0.045142 	0.001886
-85.850000	0.004565	-2.861667	2.866232	0.045129 	0.001887
-85.800000	0.004592	-2.860000	2.864592	0.045116 	0.001887
-85.750000	0.004618	-2.858333	2.862951	0.045103 	0.001888
-85.700000	0.004644	-2.856667	2.861311	0.045089 	0.001888
-85.650000	0.004671	-2.855000	2.859671	0.045076 	0.001889
-85.600000	0.004697	-2.853333	2.858030	0.045061 	0.001890
-85.550000	0.004724	-2.851667	2.856391	0.045047 	0.001890
-85.500000	0.004750	-2.850000	2.854750	0.045033 	0.001891
-85.450000	0.004777	-2.848333	2.853110	0.045018 	0.001891
-85.400000	0.004803	-2.846667	2.851470	0.045003 	0.001892
-85.350000	0.004829	-2.845000	2.849829	0.044987 	0.001892
-85.300000	0.004856	-2.843333	2.848189	0.044972 	0.001893
-85.250000	0.004882	-2.841667	2.846549	0.044956 	0.001893
-85.200000	0.004908	-2.840000	2.844908	0.044939 	0.001894
-85.150000	0.004935	-2.838333	2.843268	0.044923 	0.001894
-85.100000	0.004961	-2.836667	2.841628	0.044906 	0.001895
-85.050000	0.004987	-2.835000	2.839987	0.044889 	0.001896
-85.000000	0.005014	-2.833333	2.838347	0.044872 	0.001896
-84.950000	0.005040	-2.831667	2.836707	0.044854 	0.001897
-84.900000	0.005066	-2.830000	2.835066	0.044837 	0.001897
-84.850000	0.005092	-2.828333	2.833425	0.044819 	0.001898
-84.800000	0.005119	-2.826667	2.831786	0.044800 	0.001898
-84.750000	0.005145	-2.825000	2.830145	0.044782 	0.001899
-84.700000	0.005171	-2.823333	2.828504	0.044763 	0.001899
-84.650000	0.005197	-2.821667	2.826864	0.044744 	0.001900
-84.600000	0.005223	-2.820000	2.825223	0.044724 	0.001900
-84.550000	0.005250	-2.818333	2.823583	0.044705 	0.001901
-84.500000	0.005276	-2.816667	2.821943	0.044685 	0.001902
-84.450000	0.005302	-2.815000	2.820302	0.044664 	0.001902
-84.400000	0.005328	-2.813333	2.818661	0.044644 	0.001903
-84.350000	0.005354	-2.811667	2.817021	0.044623 	0.001903
-84.300000	0.005380	-2.810000	2.815380	0.044602 	0.001904
-84.250000	0.005406	-2.808333	2.813739	0.044581 	0.001904
-84.200000	0.005432	-2.806667	2.812099	0.044559 	0.001905
-84.150000	0.005458	-2.805000	2.810458	0.044537 	0.001905
-84.100000	0.005484	-2.803333	2.808817	0.044515 	0.001906
-84.050000	0.005510	-2.801667	2.807177	0.044493 	0.001907
-84.000000	0.005536	-2.800000	2.805536	0.044470 	0.001907
-83.950000	0.005562	-2.798333	2.803895	0.044447 	0.001908
-83.900000	0.005588	-2.796667	2.802255	0.044424 	0.001908
-83.850000	0.005614	-2.795000	2.800614	0.044400 	0.001909
-83.800000	0.005640	-2.793333	2.798973	0.044376 	0.001909
-83.750000	0.005666	-2.791667	2.797333	0.044352 	0.001910
-83.700000	0.005692	-2.790000	2.795692	0.044328 	0.001910
-83.650000	0.005718	-2.788333	2.794051	0.044303 	0.001911
-83.600000	0.005743	-2.786667	2.792410	0.044278 	0.001912
-83.550000	0.005769	-2.785000	2.790769	0.044253 	0.001912
-83.500000	0.005795	-2.783333	2.789128	0.044228 	0.001913
-83.450000	0.005821	-2.781667	2.787488	0.044202 	0.001913
-83.400000	0.005847	-2.780000	2.785847	0.044176 	0.001914
-83.350000	0.005872	-2.778333	2.784205	0.044150 	0.001914
-83.300000	0.005898	-2.776667	2.782565	0.044123 	0.001915
-83.250000	0.005924	-2.775000	2.780924	0.044096 	0.001916
-83.200000	0.005949	-2.773333	2.779282	0.044069 	0.001916
-83.150000	0.005975	-2.771667	2.777642	0.044042 	0.001917
-83.100000	0.006001	-2.770000	2.776001	0.044014 	0.001917
-83.050000	0.006026	-2.768333	2.774359	0.043986 	0.001918
-83.000000	0.006052	-2.766667	2.772719	0.043958 	0.001918
-82.950000	0.006078	-2.765000	2.771078	0.043929 	0.001919
-82.900000	0.006103	-2.763333	2.769436	0.043900 	0.001920
-82.850000	0.006129	-2.761667	2.767796	0.043871 	0.001920
-82.800000	0.006154	-2.760000	2.766154	0.043842 	0.001921
-82.750000	0.006180	-2.758333	2.764513	0.043812 	0.001921
-82.700000	0.006205	-2.756667	2.762872	0.043782 	0.001922
-82.650000	0.006231	-2.755000	2.761231	0.043752 	0.001922
-82.600000	0.006256	-2.753333	2.759589	0.043721 	0.001923
-82.550000	0.006281	-2.751667	2.757948	0.043690 	0.001924
-82.500000	0.006307	-2.750000	2.756307	0.043659 	0.001924
-82.450000	0.006332	-2.748333	2.754665	0.043628 	0.001925
-82.400000	0.006357	-2.746667	2.753024	0.043596 	0.001925
-82.350000	0.006383	-2.745000	2.751383	0.043564 	0.001926
-82.300000	0.006408	-2.743333	2.749741	0.043532 	0.001926
-82.250000	0.006433	-2.741667	2.748100	0.043499 	0.001927
-82.200000	0.006458	-2.740000	2.746458	0.043466 	0.001928
-82.150000	0.006484	-2.738333	2.744817	0.043433 	0.001928
-82.100000	0.006509	-2.736667	2.743176	0.043400 	0.001929
-82.050000	0.006534	-2.735000	2.741534	0.043366 	0.001929
-82.000000	0.006559	-2.733333	2.739892	0.043332 	0.001930
-81.950000	0.006584	-2.731667	2.738251	0.043298 	0.001930
-81.900000	0.006609	-2.730000	2.736609	0.043263 	0.001931
-81.850000	0.006634	-2.728333	2.734967	0.043228 	0.001932
-81.800000	0.006659	-2.726667	2.733326	0.043193 	0.001932
-81.750000	0.006684	-2.725000	2.731684	0.043157 	0.001933
-81.700000	0.006709	-2.723333	2.730042	0.043122 	0.001933
-81.650000	0.006734	-2.721667	2.728401	0.043086 	0.001934
-81.600000	0.006759	-2.720000	2.726759	0.043049 	0.001934
-81.550000	0.006784	-2.718333	2.725117	0.043013 	0.001935
-81.500000	0.006809	-2.716667	2.723476	0.042976 	0.001936
-81.450000	0.006834	-2.715000	2.721834	0.042938 	0.001936
-81.400000	0.006859	-2.713333	2.720192	0.042901 	0.001937
-81.350000	0.006883	-2.711667	2.718550	0.042863 	0.001937
-81.300000	0.006908	-2.710000	2.716908	0.042825 	0.001938
-81.250000	0.006933	-2.708333	2.715266	0.042787 	0.001939
-81.200000	0.006958	-2.706667	2.713625	0.042748 	0.001939
-81.150000	0.006982	-2.705000	2.711982	0.042709 	0.001940
-81.100000	0.007007	-2.703333	2.710340	0.042670 	0.001940
-81.050000	0.007031	-2.701667	2.708698	0.042630 	0.001941
-81.000000	0.007056	-2.700000	2.707056	0.042590 	0.001942
-80.950000	0.007081	-2.698333	2.705414	0.042550 	0.001942
-80.900000	0.007105	-2.696667	2.703772	0.042509 	0.001943
-80.850000	0.007130	-2.695000	2.702130	0.042469 	0.001943
-80.800000	0.007154	-2.693333	2.700487	0.042428 	0.001944
-80.750000	0.007178	-2.691667	2.698845	0.042386 	0.001944
-80.700000	0.007203	-2.690000	2.697203	0.042344 	0.001945
-80.650000	0.007227	-2.688333	2.695560	0.042302 	0.001946
-80.600000	0.007252	-2.686667	2.693919	0.042260 	0.001946
-80.550000	0.007276	-2.685000	2.692276	0.042218 	0.001947
-80.500000	0.007300	-2.683333	2.690633	0.042175 	0.001947
-80.450000	0.007324	-2.681667	2.688991	0.042132 	0.001948
-80.400000	0.007349	-2.680000	2.687349	0.042088 	0.001949
-80.350000	0.007373	-2.678333	2.685706	0.042044 	0.001949
-80.300000	0.007397	-2.676667	2.684064	0.042000 	0.001950
-80.250000	0.007421	-2.675000	2.682421	0.041956 	0.001950
-80.200000	0.007445	-2.673333	2.680778	0.041911 	0.001951
-80.150000	0.007469	-2.671667	2.679136	0.041866 	0.001952
-80.100000	0.007493	-2.670000	2.677493	0.041821 	0.001952
-80.050000	0.007517	-2.668333	2.675850	0.041775 	0.001953
-80.000000	0.007541	-2.666667	2.674208	0.041729 	0.001953
-79.950000	0.007565	-2.665000	2.672565	0.041683 	0.001954
-79.900000	0.007589	-2.663333	2.670922	0.041637 	0.001955
-79.850000	0.007613	-2.661667	2.669280	0.041590 	0.001955
-79.800000	0.007636	-2.660000	2.667636	0.041543 	0.001956
-79.750000	0.007660	-2.658333	2.665993	0.041495 	0.001956
-79.700000	0.007684	-2.656667	2.664351	0.041448 	0.001957
-79.650000	0.007708	-2.655000	2.662708	0.041400 	0.001958
-79.600000	0.007731	-2.653333	2.661064	0.041351 	0.001958
-79.550000	0.007755	-2.651667	2.659422	0.041303 	0.001959
-79.500000	0.007779	-2.650000	2.657779	0.041254 	0.001959
-79.450000	0.007802	-2.648333	2.656135	0.041204 	0.001960
-79.400000	0.007826	-2.646667	2.654493	0.041155 	0.001961
-79.350000	0.007849	-2.645000	2.652849	0.041105 	0.001961
-79.300000	0.007873	-2.643333	2.651206	0.041055 	0.001962
-79.250000	0.007896	-2.641667	2.649563	0.041004 	0.001962
-79.200000	0.007919	-2.640000	2.647919	0.040953 	0.001963
-79.150000	0.007943	-2.638333	2.646276	0.040902 	0.001964
-79.100000	0.007966	-2.636667	2.644633	0.040851 	0.001964
-79.050000	0.007989	-2.635000	2.642989	0.040799 	0.001965
-79.000000	0.008012	-2.633333	2.641345	0.040747 	0.001966
-78.950000	0.008036	-2.631667	2.639703	0.040695 	0.001966
-78.900000	0.008059	-2.630000	2.638059	0.040642 	0.001967
-78.850000	0.008082	-2.628333	2.636415	0.040589 	0.001967
-78.800000	0.008105	-2.626667	2.634772	0.040536 	0.001968
-78.750000	0.008128	-2.625000	2.633128	0.040482 	0.001969
-78.700000	0.008151	-2.623333	2.631484	0.040428 	0.001969
-78.650000	0.008174	-2.621667	2.629841	0.040374 	0.001970
-78.600000	0.008197	-2.620000	2.628197	0.040319 	0.001970
-78.550000	0.008220	-2.618333	2.626553	0.040265 	0.001971
-78.500000	0.008242	-2.616667	2.624909	0.040209 	0.001972
-78.450000	0.008265	-2.615000	2.623265	0.040154 	0.001972
-78.400000	0.008288	-2.613333	2.621621	0.040098 	0.001973
-78.350000	0.008311	-2.611667	2.619978	0.040042 	0.001974
-78.300000	0.008333	-2.610000	2.618333	0.039986 	0.001974
-78.250000	0.008356	-2.608333	2.616689	0.039929 	0.001975
-78.200000	0.008378	-2.606667	2.615045	0.039872 	0.001975
-78.150000	0.008401	-2.605000	2.613401	0.039815 	0.001976
-78.100000	0.008424	-2.603333	2.611757	0.039757 	0.001977
-78.050000	0.008446	-2.601667	2.610113	0.039699 	0.001977
-78.000000	0.008468	-2.600000	2.608468	0.039641 	0.001978
-77.950000	0.008491	-2.598333	2.606824	0.039582 	0.001978
-77.900000	0.008513	-2.596667	2.605180	0.039523 	0.001979
-77.850000	0.008535	-2.595000	2.603535	0.039464 	0.001980
-77.800000	0.008558	-2.593333	2.601891	0.039404 	0.001980
-77.750000	0.008580	-2.591667	2.600247	0.039344 	0.001981
-77.700000	0.008602	-2.590000	2.598602	0.039284 	0.001982
-77.650000	0.008624	-2.588333	2.596957	0.039224 	0.001982
-77.600000	0.008646	-2.586667	2.595313	0.039163 	0.001983
-77.550000	0.008668	-2.585000	2.593668	0.039101 	0.001983
-77.500000	0.008690	-2.583333	2.592023	0.039040 	0.001984
-77.450000	0.008712	-2.581667	2.590379	0.038978 	0.001985
-77.400000	0.008734	-2.580000	2.588734	0.038916 	0.001985
-77.350000	0.008756	-2.578333	2.587089	0.038854 	0.001986
-77.300000	0.008777	-2.576667	2.585444	0.038791 	0.001987
-77.250000	0.008799	-2.575000	2.583799	0.038728 	0.001987
-77.200000	0.008821	-2.573333	2.582154	0.038664 	0.001988
-77.150000	0.008842	-2.571667	2.580509	0.038601 	0.001989
-77.100000	0.008864	-2.570000	2.578864	0.038537 	0.001989
-77.050000	0.008886	-2.568333	2.577219	0.038472 	0.001990
-77.000000	0.008907	-2.566667	2.575574	0.038407 	0.001990
-76.950000	0.008929	-2.565000	2.573929	0.038342 	0.001991
-76.900000	0.008950	-2.563333	2.572283	0.038277 	0.001992
-76.850000	0.008971	-2.561667	2.570638	0.038211 	0.001992
-76.800000	0.008993	-2.560000	2.568993	0.038145 	0.001993
-76.750000	0.009014	-2.558333	2.567347	0.038079 	0.001994
-76.700000	0.009035	-2.556667	2.565702	0.038012 	0.001994
-76.650000	0.009056	-2.555000	2.564056	0.037945 	0.001995
-76.600000	0.009077	-2.553333	2.562410	0.037878 	0.001996
-76.550000	0.009099	-2.551667	2.560766	0.037811 	0.001996
-76.500000	0.009120	-2.550000	2.559120	0.037743 	0.001997
-76.450000	0.009140	-2.548333	2.557473	0.037674 	0.001997
-76.400000	0.009161	-2.546667	2.555828	0.037606 	0.001998
-76.350000	0.009182	-2.545000	2.554182	0.037537 	0.001999
-76.300000	0.009203	-2.543333	2.552536	0.037468 	0.001999
-76.250000	0.009224	-2.541667	2.550891	0.037398 	0.002000
-76.200000	0.009245	-2.540000	2.549245	0.037328 	0.002001
-76.150000	0.009265	-2.538333	2.547598	0.037258 	0.002001
-76.100000	0.009286	-2.536667	2.545953	0.037187 	0.002002
-76.050000	0.009306	-2.535000	2.544306	0.037117 	0.002003
-76.000000	0.009327	-2.533333	2.542660	0.037045 	0.002003
-75.950000	0.009347	-2.531667	2.541014	0.036974 	0.002004
-75.900000	0.009368	-2.530000	2.539368	0.036902 	0.002005
-75.850000	0.009388	-2.528333	2.537721	0.036830 	0.002005
-75.800000	0.009408	-2.526667	2.536075	0.036757 	0.002006
-75.750000	0.009429	-2.525000	2.534429	0.036684 	0.002007
-75.700000	0.009449	-2.523333	2.532782	0.036611 	0.002007
-75.650000	0.009469	-2.521667	2.531136	0.036538 	0.002008
-75.600000	0.009489	-2.520000	2.529489	0.036464 	0.002008
-75.550000	0.009509	-2.518333	2.527842	0.036390 	0.002009
-75.500000	0.009529	-2.516667	2.526196	0.036315 	0.002010
-75.450000	0.009549	-2.515000	2.524549	0.036241 	0.002010
-75.400000	0.009569	-2.513333	2.522902	0.036165 	0.002011
-75.350000	0.009589	-2.511667	2.521256	0.036090 	0.002012
-75.300000	0.009609	-2.510000	2.519609	0.036014 	0.002012
-75.250000	0.009628	-2.508333	2.517961	0.035938 	0.002013
-75.200000	0.009648	-2.506667	2.516315	0.035862 	0.002014
-75.150000	0.009668	-2.505000	2.514668	0.035785 	0.002014
-75.100000	0.009687	-2.503333	2.513020	0.035708 	0.002015
-75.050000	0.009707	-2.501667	2.511374	0.035630 	0.002016
-75.000000	0.009726	-2.500000	2.509726	0.035552 	0.002016
-74.950000	0.009745	-2.498333	2.508078	0.035474 	0.002017
-74.900000	0.009765	-2.496667	2.506432	0.035396 	0.002018
-74.850000	0.009784	-2.495000	2.504784	0.035317 	0.002018
-74.800000	0.009803	-2.493333	2.503136	0.035238 	0.002019
-74.750000	0.009822	-2.491667	2.501489	0.035158 	0.002020
-74.700000	0.009841	-2.490000	2.499841	0.035079 	0.002020
-74.650000	0.009861	-2.488333	2.498194	0.034999 	0.002021
-74.600000	0.009880	-2.486667	2.496547	0.034918 	0.002022
-74.550000	0.009898	-2.485000	2.494898	0.034837 	0.002022
-74.500000	0.009917	-2.483333	2.493250	0.034756 	0.002023
-74.450000	0.009936	-2.481667	2.491603	0.034675 	0.002024
-74.400000	0.009955	-2.480000	2.489955	0.034593 	0.002024