VARIABLES = X,Ksi,B,H,U,tau 
ZONE T="Time 5.000000", I=2200, DATAPACKING=POINT
-100.000000	-0.000601	-3.333333	3.332732	-0.042688 	0.001750
-99.950000	-0.002645	-3.331667	3.329022	-0.039197 	0.001751
-99.900000	-0.001750	-3.330000	3.328250	-0.040749 	0.001751
-99.850000	-0.002106	-3.328333	3.326227	-0.040155 	0.001752
-99.800000	-0.001930	-3.326667	3.324737	-0.040474 	0.001752
-99.750000	-0.001980	-3.325000	3.323020	-0.040404 	0.001752
-99.700000	-0.001934	-3.323333	3.321399	-0.040499 	0.001753
-99.650000	-0.001929	-3.321667	3.319738	-0.040524 	0.001753
-99.600000	-0.001906	-3.320000	3.318094	-0.040578 	0.001754
-99.550000	-0.001891	-3.318333	3.316442	-0.040620 	0.001754
-99.500000	-0.001872	-3.316667	3.314795	-0.040667 	0.001755
-99.450000	-0.001855	-3.315000	3.313145	-0.040711 	0.001755
-99.400000	-0.001838	-3.313333	3.311495	-0.040757 	0.001755
-99.350000	-0.001820	-3.311667	3.309847	-0.040801 	0.001756
-99.300000	-0.001802	-3.310000	3.308198	-0.040846 	0.001756
-99.250000	-0.001785	-3.308333	3.306548	-0.040890 	0.001757
-99.200000	-0.001767	-3.306667	3.304900	-0.040935 	0.001757
-99.150000	-0.001749	-3.305000	3.303251	-0.040979 	0.001758
-99.100000	-0.001732	-3.303333	3.301601	-0.041023 	0.001758
-99.050000	-0.001714	-3.301667	3.299953	-0.041067 	0.001758
-99.000000	-0.001696	-3.300000	3.298304	-0.041110 	0.001759
-98.950000	-0.001678	-3.298333	3.296655	-0.041154 	0.001759
-98.900000	-0.001660	-3.296667	3.295007	-0.041197 	0.001760
-98.850000	-0.001643	-3.295000	3.293357	-0.041240 	0.001760
-98.800000	-0.001625	-3.293333	3.291708	-0.041283 	0.001761
-98.750000	-0.001607	-3.291667	3.290060	-0.041326 	0.001761
-98.700000	-0.001589	-3.290000	3.288411	-0.041369 	0.001762
-98.650000	-0.001571	-3.288333	3.286762	-0.041411 	0.001762
-98.600000	-0.001553	-3.286667	3.285114	-0.041454 	0.001762
-98.550000	-0.001535	-3.285000	3.283465	-0.041496 	0.001763
-98.500000	-0.001517	-3.283333	3.281816	-0.041538 	0.001763
-98.450000	-0.001499	-3.281667	3.280168	-0.041580 	0.001764
-98.400000	-0.001481	-3.280000	3.278519	-0.041621 	0.001764
-98.350000	-0.001463	-3.278333	3.276870	-0.041663 	0.001765
-98.300000	-0.001445	-3.276667	3.275222	-0.041704 	0.001765
-98.250000	-0.001427	-3.275000	3.273573	-0.041746 	0.001766
-98.200000	-0.001409	-3.273333	3.271924	-0.041787 	0.001766
-98.150000	-0.001390	-3.271667	3.270277	-0.041827 	0.001766
-98.100000	-0.001372	-3.270000	3.268628	-0.041868 	0.001767
-98.050000	-0.001354	-3.268333	3.266979	-0.041909 	0.001767
-98.000000	-0.001336	-3.266667	3.265331	-0.041949 	0.001768
-97.950000	-0.001318	-3.265000	3.263682	-0.041989 	0.001768
-97.900000	-0.001299	-3.263333	3.262034	-0.042029 	0.001769
-97.850000	-0.001281	-3.261667	3.260386	-0.042069 	0.001769
-97.800000	-0.001263	-3.260000	3.258737	-0.042109 	0.001770
-97.750000	-0.001244	-3.258333	3.257089	-0.042148 	0.001770
-97.700000	-0.001226	-3.256667	3.255441	-0.042187 	0.001770
-97.650000	-0.001208	-3.255000	3.253792	-0.042227 	0.001771
-97.600000	-0.001189	-3.253333	3.252144	-0.042265 	0.001771
-97.550000	-0.001171	-3.251667	3.250496	-0.042304 	0.001772
-97.500000	-0.001152	-3.250000	3.248848	-0.042343 	0.001772
-97.450000	-0.001134	-3.248333	3.247199	-0.042381 	0.001773
-97.400000	-0.001115	-3.246667	3.245552	-0.042420 	0.001773
-97.350000	-0.001097	-3.245000	3.243903	-0.042458 	0.001774
-97.300000	-0.001078	-3.243333	3.242255	-0.042496 	0.001774
-97.250000	-0.001060	-3.241667	3.240607	-0.042533 	0.001774
-97.200000	-0.001041	-3.240000	3.238959	-0.042571 	0.001775
-97.150000	-0.001023	-3.238333	3.237310	-0.042608 	0.001775
-97.100000	-0.001004	-3.236667	3.235663	-0.042645 	0.001776
-97.050000	-0.000985	-3.235000	3.234015	-0.042682 	0.001776
-97.000000	-0.000967	-3.233333	3.232366	-0.042719 	0.001777
-96.950000	-0.000948	-3.231667	3.230719	-0.042756 	0.001777
-96.900000	-0.000929	-3.230000	3.229071	-0.042792 	0.001778
-96.850000	-0.000911	-3.228333	3.227422	-0.042829 	0.001778
-96.800000	-0.000892	-3.226667	3.225775	-0.042865 	0.001779
-96.750000	-0.000873	-3.225000	3.224127	-0.042901 	0.001779
-96.700000	-0.000854	-3.223333	3.222479	-0.042936 	0.001779
-96.650000	-0.000836	-3.221667	3.220831	-0.042972 	0.001780
-96.600000	-0.000817	-3.220000	3.219183	-0.043007 	0.001780
-96.550000	-0.000798	-3.218333	3.217535	-0.043042 	0.001781
-96.500000	-0.000779	-3.216667	3.215888	-0.043077 	0.001781
-96.450000	-0.000760	-3.215000	3.214240	-0.043112 	0.001782
-96.400000	-0.000741	-3.213333	3.212592	-0.043147 	0.001782
-96.350000	-0.000722	-3.211667	3.210945	-0.043181 	0.001783
-96.300000	-0.000704	-3.210000	3.209296	-0.043216 	0.001783
-96.250000	-0.000685	-3.208333	3.207648	-0.043250 	0.001784
-96.200000	-0.000666	-3.206667	3.206001	-0.043284 	0.001784
-96.150000	-0.000647	-3.205000	3.204353	-0.043317 	0.001785
-96.100000	-0.000628	-3.203333	3.202705	-0.043351 	0.001785
-96.050000	-0.000609	-3.201667	3.201058	-0.043384 	0.001785
-96.000000	-0.000590	-3.200000	3.199410	-0.043417 	0.001786
-95.950000	-0.000571	-3.198333	3.197762	-0.043450 	0.001786
-95.900000	-0.000551	-3.196667	3.196116	-0.043483 	0.001787
-95.850000	-0.000532	-3.195000	3.194468	-0.043516 	0.001787
-95.800000	-0.000513	-3.193333	3.192820	-0.043548 	0.001788
-95.750000	-0.000494	-3.191667	3.191173	-0.043580 	0.001788
-95.700000	-0.000475	-3.190000	3.189525	-0.043612 	0.001789
-95.650000	-0.000456	-3.188333	3.187877	-0.043644 	0.001789
-95.600000	-0.000437	-3.186667	3.186230	-0.043676 	0.001790
-95.550000	-0.000417	-3.185000	3.184583	-0.043707 	0.001790
-95.500000	-0.000398	-3.183333	3.182935	-0.043738 	0.001790
-95.450000	-0.000379	-3.181667	3.181288	-0.043769 	0.001791
-95.400000	-0.000360	-3.180000	3.179640	-0.043800 	0.001791
-95.350000	-0.000340	-3.178333	3.177993	-0.043831 	0.001792
-95.300000	-0.000321	-3.176667	3.176346	-0.043861 	0.001792
-95.250000	-0.000302	-3.175000	3.174698	-0.043891 	0.001793
-95.200000	-0.000282	-3.173333	3.173051	-0.043922 	0.001793
-95.150000	-0.000263	-3.171667	3.171404	-0.043951 	0.001794
-95.100000	-0.000244	-3.170000	3.169756	-0.043981 	0.001794
-95.050000	-0.000224	-3.168333	3.168109	-0.044011 	0.001795
-95.000000	-0.000205	-3.166667	3.166462	-0.044040 	0.001795
-94.950000	-0.000186	-3.165000	3.164814	-0.044069 	0.001796
-94.900000	-0.000166	-3.163333	3.163167	-0.044098 	0.001796
-94.850000	-0.000147	-3.161667	3.161520	-0.044126 	0.001797
-94.800000	-0.000127	-3.160000	3.159873	-0.044155 	0.001797
-94.750000	-0.000108	-3.158333	3.158225	-0.044183 	0.001797
-94.700000	-0.000088	-3.156667	3.156579	-0.044211 	0.001798
-94.650000	-0.000069	-3.155000	3.154931	-0.044239 	0.001798
-94.600000	-0.000049	-3.153333	3.153284	-0.044267 	0.001799
-94.550000	-0.000030	-3.151667	3.151637	-0.044294 	0.001799
-94.500000	-0.000010	-3.150000	3.149990	-0.044322 	0.001800
-94.450000	0.000009	-3.148333	3.148342	-0.044349 	0.001800
-94.400000	0.000029	-3.146667	3.146696	-0.044376 	0.001801
-94.350000	0.000049	-3.145000	3.145049	-0.044402 	0.001801
-94.300000	0.000068	-3.143333	3.143401	-0.044429 	0.001802
-94.250000	0.000088	-3.141667	3.141755	-0.044455 	0.001802
-94.200000	0.000107	-3.140000	3.140107	-0.044481 	0.001803
-94.150000	0.000127	-3.138333	3.138460	-0.044507 	0.001803
-94.100000	0.000147	-3.136667	3.136814	-0.044533 	0.001804
-94.050000	0.000166	-3.135000	3.135166	-0.044558 	0.001804
-94.000000	0.000186	-3.133333	3.133519	-0.044583 	0.001805
-93.950000	0.000206	-3.131667	3.131873	-0.044608 	0.001805
-93.900000	0.000226	-3.130000	3.130226	-0.044633 	0.001806
-93.850000	0.000245	-3.128333	3.128578	-0.044658 	0.001806
-93.800000	0.000265	-3.126667	3.126932	-0.044682 	0.001806
-93.750000	0.000285	-3.125000	3.125285	-0.044706 	0.001807
-93.700000	0.000305	-3.123333	3.123638	-0.044730 	0.001807
-93.650000	0.000324	-3.121667	3.121991	-0.044754 	0.001808
-93.600000	0.000344	-3.120000	3.120344	-0.044778 	0.001808
-93.550000	0.000364	-3.118333	3.118697	-0.044801 	0.001809
-93.500000	0.000384	-3.116667	3.117051	-0.044824 	0.001809
-93.450000	0.000404	-3.115000	3.115404	-0.044847 	0.001810
-93.400000	0.000424	-3.113333	3.113757	-0.044870 	0.001810
-93.350000	0.000444	-3.111667	3.112111	-0.044892 	0.001811
-93.300000	0.000463	-3.110000	3.110463	-0.044915 	0.001811
-93.250000	0.000483	-3.108333	3.108816	-0.044937 	0.001812
-93.200000	0.000503	-3.106667	3.107170	-0.044959 	0.001812
-93.150000	0.000523	-3.105000	3.105523	-0.044980 	0.001813
-93.100000	0.000543	-3.103333	3.103876	-0.045002 	0.001813
-93.050000	0.000563	-3.101667	3.102230	-0.045023 	0.001814
-93.000000	0.000583	-3.100000	3.100583	-0.045044 	0.001814
-92.950000	0.000603	-3.098333	3.098936	-0.045065 	0.001815
-92.900000	0.000623	-3.096667	3.097290	-0.045085 	0.001815
-92.850000	0.000643	-3.095000	3.095643	-0.045106 	0.001816
-92.800000	0.000663	-3.093333	3.093996	-0.045126 	0.001816
-92.750000	0.000683	-3.091667	3.092350	-0.045146 	0.001817
-92.700000	0.000703	-3.090000	3.090703	-0.045166 	0.001817
-92.650000	0.000723	-3.088333	3.089056	-0.045185 	0.001817
-92.600000	0.000743	-3.086667	3.087410	-0.045204 	0.001818
-92.550000	0.000763	-3.085000	3.085763	-0.045223 	0.001818
-92.500000	0.000783	-3.083333	3.084116	-0.045242 	0.001819
-92.450000	0.000803	-3.081667	3.082470	-0.045261 	0.001819
-92.400000	0.000824	-3.080000	3.080824	-0.045279 	0.001820
-92.350000	0.000844	-3.078333	3.079177	-0.045297 	0.001820
-92.300000	0.000864	-3.076667	3.077531	-0.045315 	0.001821
-92.250000	0.000884	-3.075000	3.075884	-0.045333 	0.001821
-92.200000	0.000904	-3.073333	3.074237	-0.045351 	0.001822
-92.150000	0.000924	-3.071667	3.072591	-0.045368 	0.001822
-92.100000	0.000944	-3.070000	3.070944	-0.045385 	0.001823
-92.050000	0.000965	-3.068333	3.069298	-0.045402 	0.001823
-92.000000	0.000985	-3.066667	3.067652	-0.045419 	0.001824
-91.950000	0.001005	-3.065000	3.066005	-0.045435 	0.001824
-91.900000	0.001025	-3.063333	3.064358	-0.045451 	0.001825
-91.850000	0.001045	-3.061667	3.062712	-0.045467 	0.001825
-91.800000	0.001066	-3.060000	3.061066	-0.045483 	0.001826
-91.750000	0.001086	-3.058333	3.059419	-0.045498 	0.001826
-91.700000	0.001106	-3.056667	3.057773	-0.045514 	0.001827
-91.650000	0.001126	-3.055000	3.056126	-0.045529 	0.001827
-91.600000	0.001146	-3.053333	3.054479	-0.045543 	0.001828
-91.550000	0.001167	-3.051667	3.052834	-0.045558 	0.001828
-91.500000	0.001187	-3.050000	3.051187	-0.045572 	0.001829
-91.450000	0.001207	-3.048333	3.049540	-0.045587 	0.001829
-91.400000	0.001228	-3.046667	3.047895	-0.045600 	0.001830
-91.350000	0.001248	-3.045000	3.046248	-0.045614 	0.001830
-91.300000	0.001268	-3.043333	3.044601	-0.045628 	0.001831
-91.250000	0.001289	-3.041667	3.042956	-0.045641 	0.001831
-91.200000	0.001309	-3.040000	3.041309	-0.045654 	0.001832
-91.150000	0.001329	-3.038333	3.039662	-0.045667 	0.001832
-91.100000	0.001349	-3.036667	3.038016	-0.045679 	0.001833
-91.050000	0.001370	-3.035000	3.036370	-0.045691 	0.001833
-91.000000	0.001390	-3.033333	3.034723	-0.045703 	0.001834
-90.950000	0.001411	-3.031667	3.033078	-0.045715 	0.001834
-90.900000	0.001431	-3.030000	3.031431	-0.045727 	0.001835
-90.850000	0.001451	-3.028333	3.029784	-0.045738 	0.001835
-90.800000	0.001472	-3.026667	3.028139	-0.045749 	0.001836
-90.750000	0.001492	-3.025000	3.026492	-0.045760 	0.001836
-90.700000	0.001512	-3.023333	3.024845	-0.045771 	0.001837
-90.650000	0.001533	-3.021667	3.023200	-0.045781 	0.001837
-90.600000	0.001553	-3.020000	3.021553	-0.045791 	0.001838
-90.550000	0.001574	-3.018333	3.019907	-0.045801 	0.001838
-90.500000	0.001594	-3.016667	3.018261	-0.045811 	0.001839
-90.450000	0.001614	-3.015000	3.016614	-0.045821 	0.001839
-90.400000	0.001635	-3.013333	3.014968	-0.045830 	0.001840
-90.350000	0.001655	-3.011667	3.013322	-0.045839 	0.001840
-90.300000	0.001676	-3.010000	3.011676	-0.045847 	0.001841
-90.250000	0.001696	-3.008333	3.010029	-0.045856 	0.001841
-90.200000	0.001717	-3.006667	3.008384	-0.045864 	0.001842
-90.150000	0.001737	-3.005000	3.006737	-0.045872 	0.001842
-90.100000	0.001757	-3.003333	3.005090	-0.045880 	0.001843
-90.050000	0.001778	-3.001667	3.003445	-0.045888 	0.001843
-90.000000	0.001798	-3.000000	3.001798	-0.045895 	0.001844
-89.950000	0.001819	-2.998333	3.000152	-0.045902 	0.001844
-89.900000	0.001839	-2.996667	2.998506	-0.045909 	0.001845
-89.850000	0.001860	-2.995000	2.996860	-0.045915 	0.001845
-89.800000	0.001880	-2.993333	2.995213	-0.045922 	0.001846
-89.750000	0.001901	-2.991667	2.993568	-0.045928 	0.001846
-89.700000	0.001921	-2.990000	2.991921	-0.045934 	0.001847
-89.650000	0.001942	-2.988333	2.990275	-0.045939 	0.001847
-89.600000	0.001962	-2.986667	2.988629	-0.045945 	0.001848
-89.550000	0.001983	-2.985000	2.986983	-0.045950 	0.001848
-89.500000	0.002003	-2.983333	2.985336	-0.045955 	0.001849
-89.450000	0.002024	-2.981667	2.983691	-0.045959 	0.001849
-89.400000	0.002044	-2.980000	2.982044	-0.045964 	0.001850
-89.350000	0.002065	-2.978333	2.980398	-0.045968 	0.001850
-89.300000	0.002085	-2.976667	2.978752	-0.045972 	0.001851
-89.250000	0.002106	-2.975000	2.977106	-0.045975 	0.001851
-89.200000	0.002126	-2.973333	2.975459	-0.045979 	0.001852
-89.150000	0.002147	-2.971667	2.973814	-0.045982 	0.001852
-89.100000	0.002167	-2.970000	2.972167	-0.045985 	0.001853
-89.050000	0.002188	-2.968333	2.970521	-0.045987 	0.001853
-89.000000	0.002208	-2.966667	2.968875	-0.045990 	0.001854
-88.950000	0.002229	-2.965000	2.967229	-0.045992 	0.001854
-88.900000	0.002249	-2.963333	2.965582	-0.045994 	0.001855
-88.850000	0.002270	-2.961667	2.963937	-0.045996 	0.001855
-88.800000	0.002290	-2.960000	2.962290	-0.045997 	0.001856
-88.750000	0.002311	-2.958333	2.960644	-0.045998 	0.001856
-88.700000	0.002331	-2.956667	2.958998	-0.045999 	0.001857
-88.650000	0.002352	-2.955000	2.957352	-0.046000 	0.001858
-88.600000	0.002372	-2.953333	2.955705	-0.046000 	0.001858
-88.550000	0.002393	-2.951667	2.954060	-0.046000 	0.001859
-88.500000	0.002414	-2.950000	2.952414	-0.046000 	0.001859
-88.450000	0.002434	-2.948333	2.950767	-0.046000 	0.001860
-88.400000	0.002455	-2.946667	2.949122	-0.045999 	0.001860
-88.350000	0.002475	-2.945000	2.947475	-0.045998 	0.001861
-88.300000	0.002496	-2.943333	2.945829	-0.045997 	0.001861
-88.250000	0.002516	-2.941667	2.944183	-0.045995 	0.001862
-88.200000	0.002537	-2.940000	2.942537	-0.045994 	0.001862
-88.150000	0.002557	-2.938333	2.940890	-0.045992 	0.001863
-88.100000	0.002578	-2.936667	2.939245	-0.045990 	0.001863
-88.050000	0.002598	-2.935000	2.937598	-0.045987 	0.001864
-88.000000	0.002619	-2.933333	2.935952	-0.045984 	0.001864
-87.950000	0.002639	-2.931667	2.934306	-0.045982 	0.001865
-87.900000	0.002660	-2.930000	2.932660	-0.045978 	0.001865
-87.850000	0.002680	-2.928333	2.931013	-0.045975 	0.001866
-87.800000	0.002701	-2.926667	2.929368	-0.045971 	0.001866
-87.750000	0.002721	-2.925000	2.927721	-0.045967 	0.001867
-87.700000	0.002742	-2.923333	2.926075	-0.045963 	0.001867
-87.650000	0.002762	-2.921667	2.924429	-0.045958 	0.001868
-87.600000	0.002783	-2.920000	2.922783	-0.045953 	0.001868
-87.550000	0.002803	-2.918333	2.921136	-0.045948 	0.001869
-87.500000	0.002824	-2.916667	2.919491	-0.045943 	0.001870
-87.450000	0.002844	-2.915000	2.917844	-0.045938 	0.001870
-87.400000	0.002865	-2.913333	2.916198	-0.045932 	0.001871
-87.350000	0.002885	-2.911667	2.914552	-0.045926 	0.001871
-87.300000	0.002906	-2.910000	2.912906	-0.045919 	0.001872
-87.250000	0.002926	-2.908333	2.911259	-0.045913 	0.001872
-87.200000	0.002947	-2.906667	2.909614	-0.045906 	0.001873
-87.150000	0.002967	-2.905000	2.907967	-0.045898 	0.001873
-87.100000	0.002988	-2.903333	2.906321	-0.045891 	0.001874
-87.050000	0.003008	-2.901667	2.904675	-0.045883 	0.001874
-87.000000	0.003029	-2.900000	2.903029	-0.045875 	0.001875
-86.950000	0.003049	-2.898333	2.901382	-0.045867 	0.001875
-86.900000	0.003070	-2.896667	2.899737	-0.045859 	0.001876
-86.850000	0.003090	-2.895000	2.898090	-0.045850 	0.001876
-86.800000	0.003110	-2.893333	2.896443	-0.045841 	0.001877
-86.750000	0.003131	-2.891667	2.894798	-0.045832 	0.001877
-86.700000	0.003151	-2.890000	2.893151	-0.045822 	0.001878
-86.650000	0.003172	-2.888333	2.891505	-0.045812 	0.001879
-86.600000	0.003192	-2.886667	2.889859	-0.045802 	0.001879
-86.550000	0.003213	-2.885000	2.888213	-0.045792 	0.001880
-86.500000	0.003233	-2.883333	2.886566	-0.045781 	0.001880
-86.450000	0.003253	-2.881667	2.884920	-0.045770 	0.001881
-86.400000	0.003274	-2.880000	2.883274	-0.045759 	0.001881
-86.350000	0.003294	-2.878333	2.881627	-0.045747 	0.001882
-86.300000	0.003315	-2.876667	2.879982	-0.045736 	0.001882
-86.250000	0.003335	-2.875000	2.878335	-0.045724 	0.001883
-86.200000	0.003355	-2.873333	2.876688	-0.045711 	0.001883
-86.150000	0.003376	-2.871667	2.875043	-0.045699 	0.001884
-86.100000	0.003396	-2.870000	2.873396	-0.045686 	0.001884
-86.050000	0.003416	-2.868333	2.871749	-0.045673 	0.001885
-86.000000	0.003437	-2.866667	2.870104	-0.045659 	0.001886
-85.950000	0.003457	-2.865000	2.868457	-0.045646 	0.001886
-85.900000	0.003477	-2.863333	2.866810	-0.045632 	0.001887
-85.850000	0.003498	-2.861667	2.865165	-0.045618 	0.001887
-85.800000	0.003518	-2.860000	2.863518	-0.045603 	0.001888
-85.750000	0.003538	-2.858333	2.861871	-0.045588 	0.001888
-85.700000	0.003559	-2.856667	2.860226	-0.045573 	0.001889
-85.650000	0.003579	-2.855000	2.858579	-0.045558 	0.001889
-85.600000	0.003599	-2.853333	2.856932	-0.045542 	0.001890
-85.550000	0.003619	-2.851667	2.855286	-0.045527 	0.001890
-85.500000	0.003640	-2.850000	2.853640	-0.045510 	0.001891
-85.450000	0.003660	-2.848333	2.851993	-0.045494 	0.001892
-85.400000	0.003680	-2.846667	2.850347	-0.045477 	0.001892
-85.350000	0.003700	-2.845000	2.848700	-0.045460 	0.001893
-85.300000	0.003721	-2.843333	2.847054	-0.045443 	0.001893
-85.250000	0.003741	-2.841667	2.845408	-0.045425 	0.001894
-85.200000	0.003761	-2.840000	2.843761	-0.045408 	0.001894
-85.150000	0.003781	-2.838333	2.842114	-0.045389 	0.001895
-85.100000	0.003801	-2.836667	2.840468	-0.045371 	0.001895
-85.050000	0.003822	-2.835000	2.838822	-0.045352 	0.001896
-85.000000	0.003842	-2.833333	2.837175	-0.045333 	0.001896
-84.950000	0.003862	-2.831667	2.835529	-0.045314 	0.001897
-84.900000	0.003882	-2.830000	2.833882	-0.045294 	0.001898
-84.850000	0.003902	-2.828333	2.832235	-0.045275 	0.001898
-84.800000	0.003922	-2.826667	2.830589	-0.045255 	0.001899
-84.750000	0.003942	-2.825000	2.828942	-0.045234 	0.001899
-84.700000	0.003963	-2.823333	2.827296	-0.045213 	0.001900
-84.650000	0.003983	-2.821667	2.825650	-0.045192 	0.001900
-84.600000	0.004003	-2.820000	2.824003	-0.045171 	0.001901
-84.550000	0.004023	-2.818333	2.822356	-0.045150 	0.001901
-84.500000	0.004043	-2.816667	2.820710	-0.045128 	0.001902
-84.450000	0.004063	-2.815000	2.819063	-0.045106 	0.001903
-84.400000	0.004083	-2.813333	2.817416	-0.045083 	0.001903
-84.350000	0.004103	-2.811667	2.815770	-0.045061 	0.001904
-84.300000	0.004123	-2.810000	2.814123	-0.045038 	0.001904
-84.250000	0.004143	-2.808333	2.812476	-0.045014 	0.001905
-84.200000	0.004163	-2.806667	2.810830	-0.044991 	0.001905
-84.150000	0.004183	-2.805000	2.809183	-0.044967 	0.001906
-84.100000	0.004203	-2.803333	2.807536	-0.044943 	0.001906
-84.050000	0.004223	-2.801667	2.805890	-0.044918 	0.001907
-84.000000	0.004243	-2.800000	2.804243	-0.044893 	0.001908
-83.950000	0.004262	-2.798333	2.802595	-0.044868 	0.001908
-83.900000	0.004282	-2.796667	2.800949	-0.044843 	0.001909
-83.850000	0.004302	-2.795000	2.799302	-0.044817 	0.001909
-83.800000	0.004322	-2.793333	2.797655	-0.044792 	0.001910
-83.750000	0.004342	-2.791667	2.796009	-0.044765 	0.001910
-83.700000	0.004362	-2.790000	2.794362	-0.044739 	0.001911
-83.650000	0.004381	-2.788333	2.792714	-0.044712 	0.001911
-83.600000	0.004401	-2.786667	2.791068	-0.044685 	0.001912
-83.550000	0.004421	-2.785000	2.789421	-0.044658 	0.001913
-83.500000	0.004441	-2.783333	2.787774	-0.044630 	0.001913
-83.450000	0.004461	-2.781667	2.786128	-0.044602 	0.001914
-83.400000	0.004480	-2.780000	2.784480	-0.044574 	0.001914
-83.350000	0.004500	-2.778333	2.782833	-0.044545 	0.001915
-83.300000	0.004520	-2.776667	2.781187	-0.044516 	0.001915
-83.250000	0.004539	-2.775000	2.779539	-0.044487 	0.001916
-83.200000	0.004559	-2.773333	2.777892	-0.044458 	0.001917
-83.150000	0.004579	-2.771667	2.776246	-0.044428 	0.001917
-83.100000	0.004598	-2.770000	2.774598	-0.044398 	0.001918
-83.050000	0.004618	-2.768333	2.772951	-0.044367 	0.001918
-83.000000	0.004638	-2.766667	2.771305	-0.044337 	0.001919
-82.950000	0.004657	-2.765000	2.769657	-0.044306 	0.001919
-82.900000	0.004677	-2.763333	2.768010	-0.044274 	0.001920
-82.850000	0.004696	-2.761667	2.766363	-0.044243 	0.001921
-82.800000	0.004716	-2.760000	2.764716	-0.044211 	0.001921
-82.750000	0.004735	-2.758333	2.763068	-0.044179 	0.001922
-82.700000	0.004755	-2.756667	2.761422	-0.044146 	0.001922
-82.650000	0.004774	-2.755000	2.759774	-0.044114 	0.001923
-82.600000	0.004794	-2.753333	2.758127	-0.044081 	0.001923
-82.550000	0.004813	-2.751667	2.756480	-0.044047 	0.001924
-82.500000	0.004832	-2.750000	2.754832	-0.044014 	0.001925
-82.450000	0.004852	-2.748333	2.753185	-0.043980 	0.001925
-82.400000	0.004871	-2.746667	2.751538	-0.043945 	0.001926
-82.350000	0.004891	-2.745000	2.749891	-0.043911 	0.001926
-82.300000	0.004910	-2.743333	2.748243	-0.043876 	0.001927
-82.250000	0.004929	-2.741667	2.746596	-0.043841 	0.001927
-82.200000	0.004949	-2.740000	2.744949	-0.043805 	0.001928
-82.150000	0.004968	-2.738333	2.743301	-0.043769 	0.001929
-82.100000	0.004987	-2.736667	2.741654	-0.043733 	0.001929
-82.050000	0.005006	-2.735000	2.740006	-0.043697 	0.001930
-82.000000	0.005025	-2.733333	2.738358	-0.043660 	0.001930
-81.950000	0.005045	-2.731667	2.736712	-0.043623 	0.001931
-81.900000	0.005064	-2.730000	2.735064	-0.043586 	0.001932
-81.850000	0.005083	-2.728333	2.733416	-0.043548 	0.001932
-81.800000	0.005102	-2.726667	2.731769	-0.043510 	0.001933
-81.750000	0.005121	-2.725000	2.730121	-0.043472 	0.001933
-81.700000	0.005140	-2.723333	2.728473	-0.043433 	0.001934
-81.650000	0.005159	-2.721667	2.726826	-0.043394 	0.001934
-81.600000	0.005178	-2.720000	2.725178	-0.043355 	0.001935
-81.550000	0.005197	-2.718333	2.723530	-0.043316 	0.001936
-81.500000	0.005216	-2.716667	2.721883	-0.043276 	0.001936
-81.450000	0.005235	-2.715000	2.720235	-0.043236 	0.001937
-81.400000	0.005254	-2.713333	2.718587	-0.043195 	0.001937
-81.350000	0.005273	-2.711667	2.716940	-0.043155 	0.001938
-81.300000	0.005292	-2.710000	2.715292	-0.043114 	0.001939
-81.250000	0.005311	-2.708333	2.713644	-0.043072 	0.001939
-81.200000	0.005330	-2.706667	2.711997	-0.043030 	0.001940
-81.150000	0.005349	-2.705000	2.710349	-0.042988 	0.001940
-81.100000	0.005367	-2.703333	2.708700	-0.042946 	0.001941
-81.050000	0.005386	-2.701667	2.707053	-0.042904 	0.001942
-81.000000	0.005405	-2.700000	2.705405	-0.042861 	0.001942
-80.950000	0.005424	-2.698333	2.703757	-0.042817 	0.001943
-80.900000	0.005442	-2.696667	2.702109	-0.042774 	0.001943
-80.850000	0.005461	-2.695000	2.700461	-0.042730 	0.001944
-80.800000	0.005480	-2.693333	2.698813	-0.042686 	0.001944
-80.750000	0.005498	-2.691667	2.697165	-0.042641 	0.001945
-80.700000	0.005517	-2.690000	2.695517	-0.042596 	0.001946
-80.650000	0.005536	-2.688333	2.693869	-0.042551 	0.001946
-80.600000	0.005554	-2.686667	2.692221	-0.042506 	0.001947
-80.550000	0.005573	-2.685000	2.690573	-0.042460 	0.001947
-80.500000	0.005591	-2.683333	2.688924	-0.042414 	0.001948
-80.450000	0.005610	-2.681667	2.687277	-0.042367 	0.001949
-80.400000	0.005628	-2.680000	2.685628	-0.042321 	0.001949
-80.350000	0.005646	-2.678333	2.683979	-0.042274 	0.001950
-80.300000	0.005665	-2.676667	2.682332	-0.042226 	0.001950
-80.250000	0.005683	-2.675000	2.680683	-0.042179 	0.001951
-80.200000	0.005702	-2.673333	2.679035	-0.042131 	0.001952
-80.150000	0.005720	-2.671667	2.677387	-0.042082 	0.001952
-80.100000	0.005738	-2.670000	2.675738	-0.042034 	0.001953
-80.050000	0.005756	-2.668333	2.674089	-0.041985 	0.001953
-80.000000	0.005775	-2.666667	2.672442	-0.041935 	0.001954
-79.950000	0.005793	-2.665000	2.670793	-0.041886 	0.001955
-79.900000	0.005811	-2.663333	2.669144	-0.041836 	0.001955
-79.850000	0.005829	-2.661667	2.667496	-0.041785 	0.001956
-79.800000	0.005847	-2.660000	2.665847	-0.041735 	0.001956
-79.750000	0.005865	-2.658333	2.664198	-0.041684 	0.001957
-79.700000	0.005883	-2.656667	2.662550	-0.041633 	0.001958
-79.650000	0.005901	-2.655000	2.660901	-0.041581 	0.001958
-79.600000	0.005919	-2.653333	2.659252	-0.041529 	0.001959
-79.550000	0.005937	-2.651667	2.657604	-0.041477 	0.001959
-79.500000	0.005955	-2.650000	2.655955	-0.041425 	0.001960
-79.450000	0.005973	-2.648333	2.654306	-0.041372 	0.001961
-79.400000	0.005991	-2.646667	2.652658	-0.041319 	0.001961
-79.350000	0.006009	-2.645000	2.651009	-0.041265 	0.001962
-79.300000	0.006027	-2.643333	2.649360	-0.041211 	0.001963
-79.250000	0.006045	-2.641667	2.647712	-0.041157 	0.001963
-79.200000	0.006062	-2.640000	2.646062	-0.041103 	0.001964
-79.150000	0.006080	-2.638333	2.644413	-0.041048 	0.001964
-79.100000	0.006098	-2.636667	2.642765	-0.040993 	0.001965
-79.050000	0.006115	-2.635000	2.641115	-0.040937 	0.001966
-79.000000	0.006133	-2.633333	2.639466	-0.040881 	0.001966
-78.950000	0.006151	-2.631667	2.637818	-0.040825 	0.001967
-78.900000	0.006168	-2.630000	2.636168	-0.040769 	0.001967
-78.850000	0.006186	-2.628333	2.634519	-0.040712 	0.001968
-78.800000	0.006203	-2.626667	2.632870	-0.040655 	0.001969
-78.750000	0.006221	-2.625000	2.631221	-0.040597 	0.001969
-78.700000	0.006238	-2.623333	2.629571	-0.040540 	0.001970
-78.650000	0.006255	-2.621667	2.627922	-0.040482 	0.001971
-78.600000	0.006273	-2.620000	2.626273	-0.040423 	0.001971
-78.550000	0.006290	-2.618333	2.624623	-0.040364 	0.001972
-78.500000	0.006307	-2.616667	2.622974	-0.040305 	0.001972
-78.450000	0.006325	-2.615000	2.621325	-0.040246 	0.001973
-78.400000	0.006342	-2.613333	2.619675	-0.040186 	0.001974
-78.350000	0.006359	-2.611667	2.618026	-0.040126 	0.001974
-78.300000	0.006376	-2.610000	2.616376	-0.040066 	0.001975
-78.250000	0.006393	-2.608333	2.614726	-0.040005 	0.001975
-78.200000	0.006411	-2.606667	2.613078	-0.039944 	0.001976
-78.150000	0.006428	-2.605000	2.611428	-0.039882 	0.001977
-78.100000	0.006445	-2.603333	2.609778	-0.039821 	0.001977
-78.050000	0.006462	-2.601667	2.608129	-0.039758 	0.001978
-78.000000	0.006479	-2.600000	2.606479	-0.039696 	0.001979
-77.950000	0.006495	-2.598333	2.604828	-0.039633 	0.001979
-77.900000	0.006512	-2.596667	2.603179	-0.039570 	0.001980
-77.850000	0.006529	-2.595000	2.601529	-0.039507 	0.001980
-77.800000	0.006546	-2.593333	2.599879	-0.039443 	0.001981
-77.750000	0.006563	-2.591667	2.598230	-0.039379 	0.001982
-77.700000	0.006579	-2.590000	2.596579	-0.039315 	0.001982
-77.650000	0.006596	-2.588333	2.594929	-0.039250 	0.001983
-77.600000	0.006613	-2.586667	2.593280	-0.039185 	0.001984
-77.550000	0.006629	-2.585000	2.591629	-0.039119 	0.001984
-77.500000	0.006646	-2.583333	2.589979	-0.039054 	0.001985
-77.450000	0.006663	-2.581667	2.588330	-0.038987 	0.001986
-77.400000	0.006679	-2.580000	2.586679	-0.038921 	0.001986
-77.350000	0.006696	-2.578333	2.585029	-0.038854 	0.001987
-77.300000	0.006712	-2.576667	2.583379	-0.038787 	0.001987
-77.250000	0.006728	-2.575000	2.581728	-0.038720 	0.001988
-77.200000	0.006745	-2.573333	2.580078	-0.038652 	0.001989
-77.150000	0.006761	-2.571667	2.578428	-0.038584 	0.001989
-77.100000	0.006777	-2.570000	2.576777	-0.038515 	0.001990
-77.050000	0.006794	-2.568333	2.575127	-0.038446 	0.001991
-77.000000	0.006810	-2.566667	2.573477	-0.038377 	0.001991
-76.950000	0.006826	-2.565000	2.571826	-0.038308 	0.001992
-76.900000	0.006842	-2.563333	2.570175	-0.038238 	0.001993
-76.850000	0.006858	-2.561667	2.568525	-0.038168 	0.001993
-76.800000	0.006874	-2.560000	2.566874	-0.038097 	0.001994
-76.750000	0.006890	-2.558333	2.565223	-0.038027 	0.001994
-76.700000	0.006906	-2.556667	2.563573	-0.037955 	0.001995
-76.650000	0.006922	-2.555000	2.561922	-0.037884 	0.001996
-76.600000	0.006938	-2.553333	2.560271	-0.037812 	0.001996
-76.550000	0.006954	-2.551667	2.558621	-0.037740 	0.001997
-76.500000	0.006970	-2.550000	2.556970	-0.037667 	0.001998
-76.450000	0.006985	-2.548333	2.555318	-0.037594 	0.001998
-76.400000	0.007001	-2.546667	2.553668	-0.037521 	0.001999
-76.350000	0.007017	-2.545000	2.552017	-0.037447 	0.002000
-76.300000	0.007032	-2.543333	2.550365	-0.037373 	0.002000
-76.250000	0.007048	-2.541667	2.548715	-0.037299 	0.002001
-76.200000	0.007064	-2.540000	2.547064	-0.037225 	0.002002
-76.150000	0.007079	-2.538333	2.545412	-0.037150 	0.002002
-76.100000	0.007095	-2.536667	2.543762	-0.037074 	0.002003
-76.050000	0.007110	-2.535000	2.542110	-0.036999 	0.002004
-76.000000	0.007125	-2.533333	2.540458	-0.036923 	0.002004
-75.950000	0.007141	-2.531667	2.538808	-0.036846 	0.002005
-75.900000	0.007156	-2.530000	2.537156	-0.036769 	0.002005
-75.850000	0.007171	-2.528333	2.535504	-0.036692 	0.002006
-75.800000	0.007186	-2.526667	2.533853	-0.036615 	0.002007
-75.750000	0.007202	-2.525000	2.532202	-0.036537 	0.002007
-75.700000	0.007217	-2.523333	2.530550	-0.036459 	0.002008
-75.650000	0.007232	-2.521667	2.528899	-0.036381 	0.002009
-75.600000	0.007247	-2.520000	2.527247	-0.036302 	0.002009
-75.550000	0.007262	-2.518333	2.525595	-0.036223 	0.002010
-75.500000	0.007277	-2.516667	2.523944	-0.036143 	0.002011
-75.450000	0.007292	-2.515000	2.522292	-0.036063 	0.002011
-75.400000	0.007307	-2.513333	2.520640	-0.035983 	0.002012
-75.350000	0.007321	-2.511667	2.518988	-0.035903 	0.002013
-75.300000	0.007336	-2.510000	2.517336	-0.035822 	0.002013
-75.250000	0.007351	-2.508333	2.515684	-0.035741 	0.002014
-75.200000	0.007366	-2.506667	2.514033	-0.035659 	0.002015
-75.150000	0.007380	-2.505000	2.512380	-0.035577 	0.002015
-75.100000	0.007394	-2.503333	2.510727	-0.035496 	0.002016
-75.050000	0.007409	-2.501667	2.509076	-0.035413 	0.002017
-75.000000	0.007423	-2.500000	2.507423	-0.035331 	0.002017
-74.950000	0.007437	-2.498333	2.505770	-0.035249 	0.002018
-74.900000	0.007451	-2.496667	2.504118	-0.035166 	0.002019
-74.850000	0.007464	-2.495000	2.502464	-0.035084 	0.002019
-74.800000	0.007478	-2.493333	2.500811	-0.035001 	0.002020