TITLE="Tsunami Runup" 
VARIABLES=x,Z,Ksi,H,B,U 
ZONE I=2200, DATAPACKING=POINT
-100.000000 	-2.457200e-003 	-2.457200e-003 	3.330876e+000 	-3.333333e+000 	-4.094014e-002 
-99.950000 	-2.439758e-003 	-2.439758e-003 	3.329227e+000 	-3.331667e+000 	-4.098705e-002 
-99.900000 	-2.422292e-003 	-2.422292e-003 	3.327578e+000 	-3.330000e+000 	-4.103381e-002 
-99.850000 	-2.404800e-003 	-2.404800e-003 	3.325929e+000 	-3.328333e+000 	-4.108041e-002 
-99.800000 	-2.387283e-003 	-2.387283e-003 	3.324279e+000 	-3.326667e+000 	-4.112686e-002 
-99.750000 	-2.369741e-003 	-2.369741e-003 	3.322630e+000 	-3.325000e+000 	-4.117315e-002 
-99.700000 	-2.352175e-003 	-2.352175e-003 	3.320981e+000 	-3.323333e+000 	-4.121928e-002 
-99.650000 	-2.334583e-003 	-2.334583e-003 	3.319332e+000 	-3.321667e+000 	-4.126526e-002 
-99.600000 	-2.316966e-003 	-2.316966e-003 	3.317683e+000 	-3.320000e+000 	-4.131108e-002 
-99.550000 	-2.299325e-003 	-2.299325e-003 	3.316034e+000 	-3.318333e+000 	-4.135674e-002 
-99.500000 	-2.281659e-003 	-2.281659e-003 	3.314385e+000 	-3.316667e+000 	-4.140225e-002 
-99.450000 	-2.263969e-003 	-2.263969e-003 	3.312736e+000 	-3.315000e+000 	-4.144760e-002 
-99.400000 	-2.246254e-003 	-2.246254e-003 	3.311087e+000 	-3.313333e+000 	-4.149279e-002 
-99.350000 	-2.228515e-003 	-2.228515e-003 	3.309438e+000 	-3.311667e+000 	-4.153782e-002 
-99.300000 	-2.210751e-003 	-2.210751e-003 	3.307789e+000 	-3.310000e+000 	-4.158269e-002 
-99.250000 	-2.192963e-003 	-2.192963e-003 	3.306140e+000 	-3.308333e+000 	-4.162740e-002 
-99.200000 	-2.175151e-003 	-2.175151e-003 	3.304492e+000 	-3.306667e+000 	-4.167195e-002 
-99.150000 	-2.157315e-003 	-2.157315e-003 	3.302843e+000 	-3.305000e+000 	-4.171634e-002 
-99.100000 	-2.139455e-003 	-2.139455e-003 	3.301194e+000 	-3.303333e+000 	-4.176056e-002 
-99.050000 	-2.121571e-003 	-2.121571e-003 	3.299545e+000 	-3.301667e+000 	-4.180463e-002 
-99.000000 	-2.103663e-003 	-2.103663e-003 	3.297896e+000 	-3.300000e+000 	-4.184853e-002 
-98.950000 	-2.085732e-003 	-2.085732e-003 	3.296248e+000 	-3.298333e+000 	-4.189228e-002 
-98.900000 	-2.067776e-003 	-2.067776e-003 	3.294599e+000 	-3.296667e+000 	-4.193585e-002 
-98.850000 	-2.049798e-003 	-2.049798e-003 	3.292950e+000 	-3.295000e+000 	-4.197927e-002 
-98.800000 	-2.031795e-003 	-2.031795e-003 	3.291302e+000 	-3.293333e+000 	-4.202252e-002 
-98.750000 	-2.013769e-003 	-2.013769e-003 	3.289653e+000 	-3.291667e+000 	-4.206561e-002 
-98.700000 	-1.995720e-003 	-1.995720e-003 	3.288004e+000 	-3.290000e+000 	-4.210853e-002 
-98.650000 	-1.977648e-003 	-1.977648e-003 	3.286356e+000 	-3.288333e+000 	-4.215129e-002 
-98.600000 	-1.959552e-003 	-1.959552e-003 	3.284707e+000 	-3.286667e+000 	-4.219388e-002 
-98.550000 	-1.941433e-003 	-1.941433e-003 	3.283059e+000 	-3.285000e+000 	-4.223630e-002 
-98.500000 	-1.923291e-003 	-1.923291e-003 	3.281410e+000 	-3.283333e+000 	-4.227856e-002 
-98.450000 	-1.905127e-003 	-1.905127e-003 	3.279762e+000 	-3.281667e+000 	-4.232065e-002 
-98.400000 	-1.886939e-003 	-1.886939e-003 	3.278113e+000 	-3.280000e+000 	-4.236258e-002 
-98.350000 	-1.868729e-003 	-1.868729e-003 	3.276465e+000 	-3.278333e+000 	-4.240433e-002 
-98.300000 	-1.850496e-003 	-1.850496e-003 	3.274816e+000 	-3.276667e+000 	-4.244592e-002 
-98.250000 	-1.832240e-003 	-1.832240e-003 	3.273168e+000 	-3.275000e+000 	-4.248734e-002 
-98.200000 	-1.813962e-003 	-1.813962e-003 	3.271519e+000 	-3.273333e+000 	-4.252859e-002 
-98.150000 	-1.795662e-003 	-1.795662e-003 	3.269871e+000 	-3.271667e+000 	-4.256967e-002 
-98.100000 	-1.777339e-003 	-1.777339e-003 	3.268223e+000 	-3.270000e+000 	-4.261058e-002 
-98.050000 	-1.758994e-003 	-1.758994e-003 	3.266574e+000 	-3.268333e+000 	-4.265132e-002 
-98.000000 	-1.740627e-003 	-1.740627e-003 	3.264926e+000 	-3.266667e+000 	-4.269189e-002 
-97.950000 	-1.722238e-003 	-1.722238e-003 	3.263278e+000 	-3.265000e+000 	-4.273229e-002 
-97.900000 	-1.703827e-003 	-1.703827e-003 	3.261630e+000 	-3.263333e+000 	-4.277252e-002 
-97.850000 	-1.685394e-003 	-1.685394e-003 	3.259981e+000 	-3.261667e+000 	-4.281257e-002 
-97.800000 	-1.666939e-003 	-1.666939e-003 	3.258333e+000 	-3.260000e+000 	-4.285245e-002 
-97.750000 	-1.648462e-003 	-1.648462e-003 	3.256685e+000 	-3.258333e+000 	-4.289216e-002 
-97.700000 	-1.629964e-003 	-1.629964e-003 	3.255037e+000 	-3.256667e+000 	-4.293170e-002 
-97.650000 	-1.611444e-003 	-1.611444e-003 	3.253389e+000 	-3.255000e+000 	-4.297106e-002 
-97.600000 	-1.592903e-003 	-1.592903e-003 	3.251740e+000 	-3.253333e+000 	-4.301024e-002 
-97.550000 	-1.574340e-003 	-1.574340e-003 	3.250092e+000 	-3.251667e+000 	-4.304925e-002 
-97.500000 	-1.555757e-003 	-1.555757e-003 	3.248444e+000 	-3.250000e+000 	-4.308809e-002 
-97.450000 	-1.537152e-003 	-1.537152e-003 	3.246796e+000 	-3.248333e+000 	-4.312675e-002 
-97.400000 	-1.518526e-003 	-1.518526e-003 	3.245148e+000 	-3.246667e+000 	-4.316523e-002 
-97.350000 	-1.499879e-003 	-1.499879e-003 	3.243500e+000 	-3.245000e+000 	-4.320354e-002 
-97.300000 	-1.481211e-003 	-1.481211e-003 	3.241852e+000 	-3.243333e+000 	-4.324167e-002 
-97.250000 	-1.462522e-003 	-1.462522e-003 	3.240204e+000 	-3.241667e+000 	-4.327963e-002 
-97.200000 	-1.443813e-003 	-1.443813e-003 	3.238556e+000 	-3.240000e+000 	-4.331740e-002 
-97.150000 	-1.425083e-003 	-1.425083e-003 	3.236908e+000 	-3.238333e+000 	-4.335500e-002 
-97.100000 	-1.406332e-003 	-1.406332e-003 	3.235260e+000 	-3.236667e+000 	-4.339242e-002 
-97.050000 	-1.387561e-003 	-1.387561e-003 	3.233612e+000 	-3.235000e+000 	-4.342965e-002 
-97.000000 	-1.368770e-003 	-1.368770e-003 	3.231965e+000 	-3.233333e+000 	-4.346671e-002 
-96.950000 	-1.349958e-003 	-1.349958e-003 	3.230317e+000 	-3.231667e+000 	-4.350359e-002 
-96.900000 	-1.331127e-003 	-1.331127e-003 	3.228669e+000 	-3.230000e+000 	-4.354029e-002 
-96.850000 	-1.312275e-003 	-1.312275e-003 	3.227021e+000 	-3.228333e+000 	-4.357681e-002 
-96.800000 	-1.293404e-003 	-1.293404e-003 	3.225373e+000 	-3.226667e+000 	-4.361314e-002 
-96.750000 	-1.274512e-003 	-1.274512e-003 	3.223725e+000 	-3.225000e+000 	-4.364930e-002 
-96.700000 	-1.255601e-003 	-1.255601e-003 	3.222078e+000 	-3.223333e+000 	-4.368527e-002 
-96.650000 	-1.236670e-003 	-1.236670e-003 	3.220430e+000 	-3.221667e+000 	-4.372106e-002 
-96.600000 	-1.217720e-003 	-1.217720e-003 	3.218782e+000 	-3.220000e+000 	-4.375666e-002 
-96.550000 	-1.198750e-003 	-1.198750e-003 	3.217135e+000 	-3.218333e+000 	-4.379208e-002 
-96.500000 	-1.179760e-003 	-1.179760e-003 	3.215487e+000 	-3.216667e+000 	-4.382732e-002 
-96.450000 	-1.160752e-003 	-1.160752e-003 	3.213839e+000 	-3.215000e+000 	-4.386237e-002 
-96.400000 	-1.141724e-003 	-1.141724e-003 	3.212192e+000 	-3.213333e+000 	-4.389724e-002 
-96.350000 	-1.122678e-003 	-1.122678e-003 	3.210544e+000 	-3.211667e+000 	-4.393193e-002 
-96.300000 	-1.103612e-003 	-1.103612e-003 	3.208896e+000 	-3.210000e+000 	-4.396642e-002 
-96.250000 	-1.084527e-003 	-1.084527e-003 	3.207249e+000 	-3.208333e+000 	-4.400073e-002 
-96.200000 	-1.065424e-003 	-1.065424e-003 	3.205601e+000 	-3.206667e+000 	-4.403486e-002 
-96.150000 	-1.046302e-003 	-1.046302e-003 	3.203954e+000 	-3.205000e+000 	-4.406879e-002 
-96.100000 	-1.027161e-003 	-1.027161e-003 	3.202306e+000 	-3.203333e+000 	-4.410254e-002 
-96.050000 	-1.008002e-003 	-1.008002e-003 	3.200659e+000 	-3.201667e+000 	-4.413610e-002 
-96.000000 	-9.888246e-004 	-9.888246e-004 	3.199011e+000 	-3.200000e+000 	-4.416948e-002 
-95.950000 	-9.696289e-004 	-9.696289e-004 	3.197364e+000 	-3.198333e+000 	-4.420266e-002 
-95.900000 	-9.504151e-004 	-9.504151e-004 	3.195716e+000 	-3.196667e+000 	-4.423565e-002 
-95.850000 	-9.311831e-004 	-9.311831e-004 	3.194069e+000 	-3.195000e+000 	-4.426846e-002 
-95.800000 	-9.119332e-004 	-9.119332e-004 	3.192421e+000 	-3.193333e+000 	-4.430107e-002 
-95.750000 	-8.926654e-004 	-8.926654e-004 	3.190774e+000 	-3.191667e+000 	-4.433349e-002 
-95.700000 	-8.733799e-004 	-8.733799e-004 	3.189127e+000 	-3.190000e+000 	-4.436573e-002 
-95.650000 	-8.540768e-004 	-8.540768e-004 	3.187479e+000 	-3.188333e+000 	-4.439777e-002 
-95.600000 	-8.347561e-004 	-8.347561e-004 	3.185832e+000 	-3.186667e+000 	-4.442962e-002 
-95.550000 	-8.154179e-004 	-8.154179e-004 	3.184185e+000 	-3.185000e+000 	-4.446127e-002 
-95.500000 	-7.960624e-004 	-7.960624e-004 	3.182537e+000 	-3.183333e+000 	-4.449273e-002 
-95.450000 	-7.766897e-004 	-7.766897e-004 	3.180890e+000 	-3.181667e+000 	-4.452400e-002 
-95.400000 	-7.572998e-004 	-7.572998e-004 	3.179243e+000 	-3.180000e+000 	-4.455508e-002 
-95.350000 	-7.378929e-004 	-7.378929e-004 	3.177595e+000 	-3.178333e+000 	-4.458596e-002 
-95.300000 	-7.184691e-004 	-7.184691e-004 	3.175948e+000 	-3.176667e+000 	-4.461665e-002 
-95.250000 	-6.990285e-004 	-6.990285e-004 	3.174301e+000 	-3.175000e+000 	-4.464714e-002 
-95.200000 	-6.795712e-004 	-6.795712e-004 	3.172654e+000 	-3.173333e+000 	-4.467744e-002 
-95.150000 	-6.600973e-004 	-6.600973e-004 	3.171007e+000 	-3.171667e+000 	-4.470754e-002 
-95.100000 	-6.406069e-004 	-6.406069e-004 	3.169359e+000 	-3.170000e+000 	-4.473744e-002 
-95.050000 	-6.211001e-004 	-6.211001e-004 	3.167712e+000 	-3.168333e+000 	-4.476715e-002 
-95.000000 	-6.015770e-004 	-6.015770e-004 	3.166065e+000 	-3.166667e+000 	-4.479666e-002 
-94.950000 	-5.820378e-004 	-5.820378e-004 	3.164418e+000 	-3.165000e+000 	-4.482597e-002 
-94.900000 	-5.624825e-004 	-5.624825e-004 	3.162771e+000 	-3.163333e+000 	-4.485508e-002 
-94.850000 	-5.429112e-004 	-5.429112e-004 	3.161124e+000 	-3.161667e+000 	-4.488400e-002 
-94.800000 	-5.233241e-004 	-5.233241e-004 	3.159477e+000 	-3.160000e+000 	-4.491271e-002 
-94.750000 	-5.037213e-004 	-5.037213e-004 	3.157830e+000 	-3.158333e+000 	-4.494123e-002 
-94.700000 	-4.841029e-004 	-4.841029e-004 	3.156183e+000 	-3.156667e+000 	-4.496954e-002 
-94.650000 	-4.644689e-004 	-4.644689e-004 	3.154536e+000 	-3.155000e+000 	-4.499766e-002 
-94.600000 	-4.448196e-004 	-4.448196e-004 	3.152889e+000 	-3.153333e+000 	-4.502557e-002 
-94.550000 	-4.251549e-004 	-4.251549e-004 	3.151242e+000 	-3.151667e+000 	-4.505329e-002 
-94.500000 	-4.054751e-004 	-4.054751e-004 	3.149595e+000 	-3.150000e+000 	-4.508080e-002 
-94.450000 	-3.857802e-004 	-3.857802e-004 	3.147948e+000 	-3.148333e+000 	-4.510811e-002 
-94.400000 	-3.660703e-004 	-3.660703e-004 	3.146301e+000 	-3.146667e+000 	-4.513522e-002 
-94.350000 	-3.463456e-004 	-3.463456e-004 	3.144654e+000 	-3.145000e+000 	-4.516212e-002 
-94.300000 	-3.266062e-004 	-3.266062e-004 	3.143007e+000 	-3.143333e+000 	-4.518882e-002 
-94.250000 	-3.068521e-004 	-3.068521e-004 	3.141360e+000 	-3.141667e+000 	-4.521532e-002 
-94.200000 	-2.870835e-004 	-2.870835e-004 	3.139713e+000 	-3.140000e+000 	-4.524161e-002 
-94.150000 	-2.673006e-004 	-2.673006e-004 	3.138066e+000 	-3.138333e+000 	-4.526770e-002 
-94.100000 	-2.475033e-004 	-2.475033e-004 	3.136419e+000 	-3.136667e+000 	-4.529358e-002 
-94.050000 	-2.276919e-004 	-2.276919e-004 	3.134772e+000 	-3.135000e+000 	-4.531925e-002 
-94.000000 	-2.078665e-004 	-2.078665e-004 	3.133125e+000 	-3.133333e+000 	-4.534472e-002 
-93.950000 	-1.880271e-004 	-1.880271e-004 	3.131479e+000 	-3.131667e+000 	-4.536999e-002 
-93.900000 	-1.681739e-004 	-1.681739e-004 	3.129832e+000 	-3.130000e+000 	-4.539504e-002 
-93.850000 	-1.483069e-004 	-1.483069e-004 	3.128185e+000 	-3.128333e+000 	-4.541989e-002 
-93.800000 	-1.284264e-004 	-1.284264e-004 	3.126538e+000 	-3.126667e+000 	-4.544453e-002 
-93.750000 	-1.085324e-004 	-1.085324e-004 	3.124891e+000 	-3.125000e+000 	-4.546897e-002 
-93.700000 	-8.862508e-005 	-8.862508e-005 	3.123245e+000 	-3.123333e+000 	-4.549319e-002 
-93.650000 	-6.870449e-005 	-6.870449e-005 	3.121598e+000 	-3.121667e+000 	-4.551720e-002 
-93.600000 	-4.877078e-005 	-4.877078e-005 	3.119951e+000 	-3.120000e+000 	-4.554101e-002 
-93.550000 	-2.882405e-005 	-2.882405e-005 	3.118305e+000 	-3.118333e+000 	-4.556460e-002 
-93.500000 	-8.864437e-006 	-8.864437e-006 	3.116658e+000 	-3.116667e+000 	-4.558799e-002 
-93.450000 	1.110795e-005 	1.110795e-005 	3.115011e+000 	-3.115000e+000 	-4.561116e-002 
-93.400000 	3.109299e-005 	3.109299e-005 	3.113364e+000 	-3.113333e+000 	-4.563412e-002 
-93.350000 	5.109057e-005 	5.109057e-005 	3.111718e+000 	-3.111667e+000 	-4.565687e-002 
-93.300000 	7.110056e-005 	7.110056e-005 	3.110071e+000 	-3.110000e+000 	-4.567941e-002 
-93.250000 	9.112285e-005 	9.112285e-005 	3.108424e+000 	-3.108333e+000 	-4.570174e-002 
-93.200000 	1.111573e-004 	1.111573e-004 	3.106778e+000 	-3.106667e+000 	-4.572385e-002 
-93.150000 	1.312038e-004 	1.312038e-004 	3.105131e+000 	-3.105000e+000 	-4.574574e-002 
-93.100000 	1.512623e-004 	1.512623e-004 	3.103485e+000 	-3.103333e+000 	-4.576743e-002 
-93.050000 	1.713326e-004 	1.713326e-004 	3.101838e+000 	-3.101667e+000 	-4.578890e-002 
-93.000000 	1.914146e-004 	1.914146e-004 	3.100191e+000 	-3.100000e+000 	-4.581015e-002 
-92.950000 	2.115081e-004 	2.115081e-004 	3.098545e+000 	-3.098333e+000 	-4.583119e-002 
-92.900000 	2.316131e-004 	2.316131e-004 	3.096898e+000 	-3.096667e+000 	-4.585201e-002 
-92.850000 	2.517295e-004 	2.517295e-004 	3.095252e+000 	-3.095000e+000 	-4.587262e-002 
-92.800000 	2.718570e-004 	2.718570e-004 	3.093605e+000 	-3.093333e+000 	-4.589301e-002 
-92.750000 	2.919956e-004 	2.919956e-004 	3.091959e+000 	-3.091667e+000 	-4.591318e-002 
-92.700000 	3.121452e-004 	3.121452e-004 	3.090312e+000 	-3.090000e+000 	-4.593314e-002 
-92.650000 	3.323057e-004 	3.323057e-004 	3.088666e+000 	-3.088333e+000 	-4.595288e-002 
-92.600000 	3.524768e-004 	3.524768e-004 	3.087019e+000 	-3.086667e+000 	-4.597239e-002 
-92.550000 	3.726586e-004 	3.726586e-004 	3.085373e+000 	-3.085000e+000 	-4.599169e-002 
-92.500000 	3.928508e-004 	3.928508e-004 	3.083726e+000 	-3.083333e+000 	-4.601077e-002 
-92.450000 	4.130533e-004 	4.130533e-004 	3.082080e+000 	-3.081667e+000 	-4.602964e-002 
-92.400000 	4.332661e-004 	4.332661e-004 	3.080433e+000 	-3.080000e+000 	-4.604828e-002 
-92.350000 	4.534890e-004 	4.534890e-004 	3.078787e+000 	-3.078333e+000 	-4.606670e-002 
-92.300000 	4.737219e-004 	4.737219e-004 	3.077140e+000 	-3.076667e+000 	-4.608489e-002 
-92.250000 	4.939646e-004 	4.939646e-004 	3.075494e+000 	-3.075000e+000 	-4.610287e-002 
-92.200000 	5.142170e-004 	5.142170e-004 	3.073848e+000 	-3.073333e+000 	-4.612063e-002 
-92.150000 	5.344790e-004 	5.344790e-004 	3.072201e+000 	-3.071667e+000 	-4.613816e-002 
-92.100000 	5.547504e-004 	5.547504e-004 	3.070555e+000 	-3.070000e+000 	-4.615547e-002 
-92.050000 	5.750312e-004 	5.750312e-004 	3.068908e+000 	-3.068333e+000 	-4.617255e-002 
-92.000000 	5.953213e-004 	5.953213e-004 	3.067262e+000 	-3.066667e+000 	-4.618942e-002 
-91.950000 	6.156204e-004 	6.156204e-004 	3.065616e+000 	-3.065000e+000 	-4.620606e-002 
-91.900000 	6.359284e-004 	6.359284e-004 	3.063969e+000 	-3.063333e+000 	-4.622247e-002 
-91.850000 	6.562453e-004 	6.562453e-004 	3.062323e+000 	-3.061667e+000 	-4.623866e-002 
-91.800000 	6.765709e-004 	6.765709e-004 	3.060677e+000 	-3.060000e+000 	-4.625462e-002 
-91.750000 	6.969050e-004 	6.969050e-004 	3.059030e+000 	-3.058333e+000 	-4.627036e-002 
-91.700000 	7.172476e-004 	7.172476e-004 	3.057384e+000 	-3.056667e+000 	-4.628587e-002 
-91.650000 	7.375985e-004 	7.375985e-004 	3.055738e+000 	-3.055000e+000 	-4.630115e-002 
-91.600000 	7.579576e-004 	7.579576e-004 	3.054091e+000 	-3.053333e+000 	-4.631621e-002 
-91.550000 	7.783248e-004 	7.783248e-004 	3.052445e+000 	-3.051667e+000 	-4.633104e-002 
-91.500000 	7.986998e-004 	7.986998e-004 	3.050799e+000 	-3.050000e+000 	-4.634564e-002 
-91.450000 	8.190827e-004 	8.190827e-004 	3.049152e+000 	-3.048333e+000 	-4.636001e-002 
-91.400000 	8.394732e-004 	8.394732e-004 	3.047506e+000 	-3.046667e+000 	-4.637416e-002 
-91.350000 	8.598712e-004 	8.598712e-004 	3.045860e+000 	-3.045000e+000 	-4.638807e-002 
-91.300000 	8.802767e-004 	8.802767e-004 	3.044214e+000 	-3.043333e+000 	-4.640175e-002 
-91.250000 	9.006894e-004 	9.006894e-004 	3.042567e+000 	-3.041667e+000 	-4.641521e-002 
-91.200000 	9.211092e-004 	9.211092e-004 	3.040921e+000 	-3.040000e+000 	-4.642843e-002 
-91.150000 	9.415360e-004 	9.415360e-004 	3.039275e+000 	-3.038333e+000 	-4.644142e-002 
-91.100000 	9.619697e-004 	9.619697e-004 	3.037629e+000 	-3.036667e+000 	-4.645418e-002 
-91.050000 	9.824102e-004 	9.824102e-004 	3.035982e+000 	-3.035000e+000 	-4.646671e-002 
-91.000000 	1.002857e-003 	1.002857e-003 	3.034336e+000 	-3.033333e+000 	-4.647901e-002 
-90.950000 	1.023311e-003 	1.023311e-003 	3.032690e+000 	-3.031667e+000 	-4.649107e-002 
-90.900000 	1.043771e-003 	1.043771e-003 	3.031044e+000 	-3.030000e+000 	-4.650290e-002 
-90.850000 	1.064237e-003 	1.064237e-003 	3.029398e+000 	-3.028333e+000 	-4.651450e-002 
-90.800000 	1.084709e-003 	1.084709e-003 	3.027751e+000 	-3.026667e+000 	-4.652586e-002 
-90.750000 	1.105187e-003 	1.105187e-003 	3.026105e+000 	-3.025000e+000 	-4.653698e-002 
-90.700000 	1.125670e-003 	1.125670e-003 	3.024459e+000 	-3.023333e+000 	-4.654788e-002 
-90.650000 	1.146160e-003 	1.146160e-003 	3.022813e+000 	-3.021667e+000 	-4.655853e-002 
-90.600000 	1.166655e-003 	1.166655e-003 	3.021167e+000 	-3.020000e+000 	-4.656895e-002 
-90.550000 	1.187155e-003 	1.187155e-003 	3.019520e+000 	-3.018333e+000 	-4.657914e-002 
-90.500000 	1.207661e-003 	1.207661e-003 	3.017874e+000 	-3.016667e+000 	-4.658908e-002 
-90.450000 	1.228172e-003 	1.228172e-003 	3.016228e+000 	-3.015000e+000 	-4.659879e-002 
-90.400000 	1.248687e-003 	1.248687e-003 	3.014582e+000 	-3.013333e+000 	-4.660826e-002 
-90.350000 	1.269208e-003 	1.269208e-003 	3.012936e+000 	-3.011667e+000 	-4.661750e-002 
-90.300000 	1.289733e-003 	1.289733e-003 	3.011290e+000 	-3.010000e+000 	-4.662649e-002 
-90.250000 	1.310263e-003 	1.310263e-003 	3.009644e+000 	-3.008333e+000 	-4.663525e-002 
-90.200000 	1.330797e-003 	1.330797e-003 	3.007997e+000 	-3.006667e+000 	-4.664377e-002 
-90.150000 	1.351336e-003 	1.351336e-003 	3.006351e+000 	-3.005000e+000 	-4.665204e-002 
-90.100000 	1.371878e-003 	1.371878e-003 	3.004705e+000 	-3.003333e+000 	-4.666008e-002 
-90.050000 	1.392425e-003 	1.392425e-003 	3.003059e+000 	-3.001667e+000 	-4.666787e-002 
-90.000000 	1.412975e-003 	1.412975e-003 	3.001413e+000 	-3.000000e+000 	-4.667543e-002 
-89.950000 	1.433530e-003 	1.433530e-003 	2.999767e+000 	-2.998333e+000 	-4.668274e-002 
-89.900000 	1.454088e-003 	1.454088e-003 	2.998121e+000 	-2.996667e+000 	-4.668981e-002 
-89.850000 	1.474649e-003 	1.474649e-003 	2.996475e+000 	-2.995000e+000 	-4.669664e-002 
-89.800000 	1.495213e-003 	1.495213e-003 	2.994829e+000 	-2.993333e+000 	-4.670323e-002 
-89.750000 	1.515781e-003 	1.515781e-003 	2.993182e+000 	-2.991667e+000 	-4.670957e-002 
-89.700000 	1.536352e-003 	1.536352e-003 	2.991536e+000 	-2.990000e+000 	-4.671567e-002 
-89.650000 	1.556926e-003 	1.556926e-003 	2.989890e+000 	-2.988333e+000 	-4.672152e-002 
-89.600000 	1.577502e-003 	1.577502e-003 	2.988244e+000 	-2.986667e+000 	-4.672713e-002 
-89.550000 	1.598081e-003 	1.598081e-003 	2.986598e+000 	-2.985000e+000 	-4.673250e-002 
-89.500000 	1.618662e-003 	1.618662e-003 	2.984952e+000 	-2.983333e+000 	-4.673761e-002 
-89.450000 	1.639246e-003 	1.639246e-003 	2.983306e+000 	-2.981667e+000 	-4.674249e-002 
-89.400000 	1.659832e-003 	1.659832e-003 	2.981660e+000 	-2.980000e+000 	-4.674711e-002 
-89.350000 	1.680420e-003 	1.680420e-003 	2.980014e+000 	-2.978333e+000 	-4.675149e-002 
-89.300000 	1.701010e-003 	1.701010e-003 	2.978368e+000 	-2.976667e+000 	-4.675563e-002 
-89.250000 	1.721601e-003 	1.721601e-003 	2.976722e+000 	-2.975000e+000 	-4.675951e-002 
-89.200000 	1.742195e-003 	1.742195e-003 	2.975076e+000 	-2.973333e+000 	-4.676315e-002 
-89.150000 	1.762789e-003 	1.762789e-003 	2.973429e+000 	-2.971667e+000 	-4.676654e-002 
-89.100000 	1.783385e-003 	1.783385e-003 	2.971783e+000 	-2.970000e+000 	-4.676968e-002 
-89.050000 	1.803982e-003 	1.803982e-003 	2.970137e+000 	-2.968333e+000 	-4.677257e-002 
-89.000000 	1.824580e-003 	1.824580e-003 	2.968491e+000 	-2.966667e+000 	-4.677521e-002 
-88.950000 	1.845179e-003 	1.845179e-003 	2.966845e+000 	-2.965000e+000 	-4.677760e-002 
-88.900000 	1.865779e-003 	1.865779e-003 	2.965199e+000 	-2.963333e+000 	-4.677974e-002 
-88.850000 	1.886379e-003 	1.886379e-003 	2.963553e+000 	-2.961667e+000 	-4.678163e-002 
-88.800000 	1.906980e-003 	1.906980e-003 	2.961907e+000 	-2.960000e+000 	-4.678326e-002 
-88.750000 	1.927581e-003 	1.927581e-003 	2.960261e+000 	-2.958333e+000 	-4.678465e-002 
-88.700000 	1.948182e-003 	1.948182e-003 	2.958615e+000 	-2.956667e+000 	-4.678578e-002 
-88.650000 	1.968783e-003 	1.968783e-003 	2.956969e+000 	-2.955000e+000 	-4.678666e-002 
-88.600000 	1.989384e-003 	1.989384e-003 	2.955323e+000 	-2.953333e+000 	-4.678729e-002 
-88.550000 	2.009984e-003 	2.009984e-003 	2.953677e+000 	-2.951667e+000 	-4.678766e-002 
-88.500000 	2.030585e-003 	2.030585e-003 	2.952031e+000 	-2.950000e+000 	-4.678778e-002 
-88.450000 	2.051184e-003 	2.051184e-003 	2.950385e+000 	-2.948333e+000 	-4.678765e-002 
-88.400000 	2.071783e-003 	2.071783e-003 	2.948738e+000 	-2.946667e+000 	-4.678725e-002 
-88.350000 	2.092381e-003 	2.092381e-003 	2.947092e+000 	-2.945000e+000 	-4.678661e-002 
-88.300000 	2.112978e-003 	2.112978e-003 	2.945446e+000 	-2.943333e+000 	-4.678571e-002 
-88.250000 	2.133573e-003 	2.133573e-003 	2.943800e+000 	-2.941667e+000 	-4.678455e-002 
-88.200000 	2.154168e-003 	2.154168e-003 	2.942154e+000 	-2.940000e+000 	-4.678314e-002 
-88.150000 	2.174760e-003 	2.174760e-003 	2.940508e+000 	-2.938333e+000 	-4.678146e-002 
-88.100000 	2.195351e-003 	2.195351e-003 	2.938862e+000 	-2.936667e+000 	-4.677954e-002 
-88.050000 	2.215941e-003 	2.215941e-003 	2.937216e+000 	-2.935000e+000 	-4.677735e-002 
-88.000000 	2.236528e-003 	2.236528e-003 	2.935570e+000 	-2.933333e+000 	-4.677490e-002 
-87.950000 	2.257113e-003 	2.257113e-003 	2.933924e+000 	-2.931667e+000 	-4.677220e-002 
-87.900000 	2.277696e-003 	2.277696e-003 	2.932278e+000 	-2.930000e+000 	-4.676924e-002 
-87.850000 	2.298277e-003 	2.298277e-003 	2.930632e+000 	-2.928333e+000 	-4.676601e-002 
-87.800000 	2.318855e-003 	2.318855e-003 	2.928986e+000 	-2.926667e+000 	-4.676253e-002 
-87.750000 	2.339430e-003 	2.339430e-003 	2.927339e+000 	-2.925000e+000 	-4.675879e-002 
-87.700000 	2.360003e-003 	2.360003e-003 	2.925693e+000 	-2.923333e+000 	-4.675479e-002 
-87.650000 	2.380572e-003 	2.380572e-003 	2.924047e+000 	-2.921667e+000 	-4.675052e-002 
-87.600000 	2.401139e-003 	2.401139e-003 	2.922401e+000 	-2.920000e+000 	-4.674599e-002 
-87.550000 	2.421702e-003 	2.421702e-003 	2.920755e+000 	-2.918333e+000 	-4.674120e-002 
-87.500000 	2.442261e-003 	2.442261e-003 	2.919109e+000 	-2.916667e+000 	-4.673615e-002 
-87.450000 	2.462817e-003 	2.462817e-003 	2.917463e+000 	-2.915000e+000 	-4.673084e-002 
-87.400000 	2.483369e-003 	2.483369e-003 	2.915817e+000 	-2.913333e+000 	-4.672526e-002 
-87.350000 	2.503917e-003 	2.503917e-003 	2.914171e+000 	-2.911667e+000 	-4.671942e-002 
-87.300000 	2.524461e-003 	2.524461e-003 	2.912524e+000 	-2.910000e+000 	-4.671331e-002 
-87.250000 	2.545001e-003 	2.545001e-003 	2.910878e+000 	-2.908333e+000 	-4.670694e-002 
-87.200000 	2.565536e-003 	2.565536e-003 	2.909232e+000 	-2.906667e+000 	-4.670031e-002 
-87.150000 	2.586067e-003 	2.586067e-003 	2.907586e+000 	-2.905000e+000 	-4.669341e-002 
-87.100000 	2.606593e-003 	2.606593e-003 	2.905940e+000 	-2.903333e+000 	-4.668624e-002 
-87.050000 	2.627115e-003 	2.627115e-003 	2.904294e+000 	-2.901667e+000 	-4.667881e-002 
-87.000000 	2.647631e-003 	2.647631e-003 	2.902648e+000 	-2.900000e+000 	-4.667111e-002 
-86.950000 	2.668142e-003 	2.668142e-003 	2.901001e+000 	-2.898333e+000 	-4.666314e-002 
-86.900000 	2.688647e-003 	2.688647e-003 	2.899355e+000 	-2.896667e+000 	-4.665491e-002 
-86.850000 	2.709148e-003 	2.709148e-003 	2.897709e+000 	-2.895000e+000 	-4.664640e-002 
-86.800000 	2.729642e-003 	2.729642e-003 	2.896063e+000 	-2.893333e+000 	-4.663763e-002 
-86.750000 	2.750131e-003 	2.750131e-003 	2.894417e+000 	-2.891667e+000 	-4.662859e-002 
-86.700000 	2.770614e-003 	2.770614e-003 	2.892771e+000 	-2.890000e+000 	-4.661928e-002 
-86.650000 	2.791090e-003 	2.791090e-003 	2.891124e+000 	-2.888333e+000 	-4.660971e-002 
-86.600000 	2.811561e-003 	2.811561e-003 	2.889478e+000 	-2.886667e+000 	-4.659986e-002 
-86.550000 	2.832024e-003 	2.832024e-003 	2.887832e+000 	-2.885000e+000 	-4.658974e-002 
-86.500000 	2.852482e-003 	2.852482e-003 	2.886186e+000 	-2.883333e+000 	-4.657935e-002 
-86.450000 	2.872932e-003 	2.872932e-003 	2.884540e+000 	-2.881667e+000 	-4.656869e-002 
-86.400000 	2.893376e-003 	2.893376e-003 	2.882893e+000 	-2.880000e+000 	-4.655775e-002 
-86.350000 	2.913812e-003 	2.913812e-003 	2.881247e+000 	-2.878333e+000 	-4.654655e-002 
-86.300000 	2.934242e-003 	2.934242e-003 	2.879601e+000 	-2.876667e+000 	-4.653507e-002 
-86.250000 	2.954664e-003 	2.954664e-003 	2.877955e+000 	-2.875000e+000 	-4.652332e-002 
-86.200000 	2.975078e-003 	2.975078e-003 	2.876308e+000 	-2.873333e+000 	-4.651130e-002 
-86.150000 	2.995484e-003 	2.995484e-003 	2.874662e+000 	-2.871667e+000 	-4.649900e-002 
-86.100000 	3.015883e-003 	3.015883e-003 	2.873016e+000 	-2.870000e+000 	-4.648643e-002 
-86.050000 	3.036274e-003 	3.036274e-003 	2.871370e+000 	-2.868333e+000 	-4.647358e-002 
-86.000000 	3.056656e-003 	3.056656e-003 	2.869723e+000 	-2.866667e+000 	-4.646046e-002 
-85.950000 	3.077030e-003 	3.077030e-003 	2.868077e+000 	-2.865000e+000 	-4.644706e-002 
-85.900000 	3.097396e-003 	3.097396e-003 	2.866431e+000 	-2.863333e+000 	-4.643339e-002 
-85.850000 	3.117753e-003 	3.117753e-003 	2.864784e+000 	-2.861667e+000 	-4.641944e-002 
-85.800000 	3.138101e-003 	3.138101e-003 	2.863138e+000 	-2.860000e+000 	-4.640521e-002 
-85.750000 	3.158440e-003 	3.158440e-003 	2.861492e+000 	-2.858333e+000 	-4.639071e-002 
-85.700000 	3.178770e-003 	3.178770e-003 	2.859845e+000 	-2.856667e+000 	-4.637593e-002 
-85.650000 	3.199090e-003 	3.199090e-003 	2.858199e+000 	-2.855000e+000 	-4.636087e-002 
-85.600000 	3.219401e-003 	3.219401e-003 	2.856553e+000 	-2.853333e+000 	-4.634553e-002 
-85.550000 	3.239703e-003 	3.239703e-003 	2.854906e+000 	-2.851667e+000 	-4.632992e-002 
-85.500000 	3.259994e-003 	3.259994e-003 	2.853260e+000 	-2.850000e+000 	-4.631403e-002 
-85.450000 	3.280276e-003 	3.280276e-003 	2.851614e+000 	-2.848333e+000 	-4.629785e-002 
-85.400000 	3.300547e-003 	3.300547e-003 	2.849967e+000 	-2.846667e+000 	-4.628140e-002 
-85.350000 	3.320808e-003 	3.320808e-003 	2.848321e+000 	-2.845000e+000 	-4.626466e-002 
-85.300000 	3.341059e-003 	3.341059e-003 	2.846674e+000 	-2.843333e+000 	-4.624765e-002 
-85.250000 	3.361299e-003 	3.361299e-003 	2.845028e+000 	-2.841667e+000 	-4.623035e-002 
-85.200000 	3.381528e-003 	3.381528e-003 	2.843382e+000 	-2.840000e+000 	-4.621278e-002 
-85.150000 	3.401746e-003 	3.401746e-003 	2.841735e+000 	-2.838333e+000 	-4.619492e-002 
-85.100000 	3.421953e-003 	3.421953e-003 	2.840089e+000 	-2.836667e+000 	-4.617677e-002 
-85.050000 	3.442149e-003 	3.442149e-003 	2.838442e+000 	-2.835000e+000 	-4.615835e-002 
-85.000000 	3.462333e-003 	3.462333e-003 	2.836796e+000 	-2.833333e+000 	-4.613964e-002 
-84.950000 	3.482506e-003 	3.482506e-003 	2.835149e+000 	-2.831667e+000 	-4.612065e-002 
-84.900000 	3.502667e-003 	3.502667e-003 	2.833503e+000 	-2.830000e+000 	-4.610138e-002 
-84.850000 	3.522816e-003 	3.522816e-003 	2.831856e+000 	-2.828333e+000 	-4.608182e-002 
-84.800000 	3.542952e-003 	3.542952e-003 	2.830210e+000 	-2.826667e+000 	-4.606197e-002 
-84.750000 	3.563077e-003 	3.563077e-003 	2.828563e+000 	-2.825000e+000 	-4.604184e-002 
-84.700000 	3.583189e-003 	3.583189e-003 	2.826917e+000 	-2.823333e+000 	-4.602143e-002 
-84.650000 	3.603288e-003 	3.603288e-003 	2.825270e+000 	-2.821667e+000 	-4.600073e-002 
-84.600000 	3.623374e-003 	3.623374e-003 	2.823623e+000 	-2.820000e+000 	-4.597974e-002 
-84.550000 	3.643448e-003 	3.643448e-003 	2.821977e+000 	-2.818333e+000 	-4.595847e-002 
-84.500000 	3.663508e-003 	3.663508e-003 	2.820330e+000 	-2.816667e+000 	-4.593691e-002 
-84.450000 	3.683555e-003 	3.683555e-003 	2.818684e+000 	-2.815000e+000 	-4.591506e-002 
-84.400000 	3.703589e-003 	3.703589e-003 	2.817037e+000 	-2.813333e+000 	-4.589292e-002 
-84.350000 	3.723609e-003 	3.723609e-003 	2.815390e+000 	-2.811667e+000 	-4.587050e-002 
-84.300000 	3.743615e-003 	3.743615e-003 	2.813744e+000 	-2.810000e+000 	-4.584778e-002 
-84.250000 	3.763607e-003 	3.763607e-003 	2.812097e+000 	-2.808333e+000 	-4.582478e-002 
-84.200000 	3.783585e-003 	3.783585e-003 	2.810450e+000 	-2.806667e+000 	-4.580149e-002 
-84.150000 	3.803549e-003 	3.803549e-003 	2.808804e+000 	-2.805000e+000 	-4.577791e-002 
-84.100000 	3.823498e-003 	3.823498e-003 	2.807157e+000 	-2.803333e+000 	-4.575403e-002 
-84.050000 	3.843433e-003 	3.843433e-003 	2.805510e+000 	-2.801667e+000 	-4.572987e-002 
-84.000000 	3.863353e-003 	3.863353e-003 	2.803863e+000 	-2.800000e+000 	-4.570542e-002 
-83.950000 	3.883257e-003 	3.883257e-003 	2.802217e+000 	-2.798333e+000 	-4.568067e-002 
-83.900000 	3.903147e-003 	3.903147e-003 	2.800570e+000 	-2.796667e+000 	-4.565563e-002 
-83.850000 	3.923021e-003 	3.923021e-003 	2.798923e+000 	-2.795000e+000 	-4.563030e-002 
-83.800000 	3.942880e-003 	3.942880e-003 	2.797276e+000 	-2.793333e+000 	-4.560468e-002 
-83.750000 	3.962723e-003 	3.962723e-003 	2.795629e+000 	-2.791667e+000 	-4.557876e-002 
-83.700000 	3.982550e-003 	3.982550e-003 	2.793983e+000 	-2.790000e+000 	-4.555255e-002 
-83.650000 	4.002361e-003 	4.002361e-003 	2.792336e+000 	-2.788333e+000 	-4.552605e-002 
-83.600000 	4.022156e-003 	4.022156e-003 	2.790689e+000 	-2.786667e+000 	-4.549925e-002 
-83.550000 	4.041935e-003 	4.041935e-003 	2.789042e+000 	-2.785000e+000 	-4.547216e-002 
-83.500000 	4.061697e-003 	4.061697e-003 	2.787395e+000 	-2.783333e+000 	-4.544478e-002 
-83.450000 	4.081443e-003 	4.081443e-003 	2.785748e+000 	-2.781667e+000 	-4.541709e-002 
-83.400000 	4.101171e-003 	4.101171e-003 	2.784101e+000 	-2.780000e+000 	-4.538912e-002 