VARIABLES = X,Ksi,B,H,U,tau,Delta 
ZONE T="Time 50.000000", I=501, DATAPACKING=POINT
0.000000	0.100004	0.000000	0.100004	-0.000000	0.001010	0.004092
0.002000	0.100004	0.000000	0.100004	0.000000	0.001010	0.004092
0.004000	0.100004	0.000000	0.100004	0.000000	0.001010	0.004093
0.006000	0.100004	0.000000	0.100004	0.000000	0.001010	0.004093
0.008000	0.100004	0.000000	0.100004	0.000000	0.001010	0.004094
0.010000	0.100004	0.000000	0.100004	0.000000	0.001010	0.004094
0.012000	0.100004	0.000000	0.100004	0.000000	0.001010	0.004095
0.014000	0.100004	0.000000	0.100004	0.000000	0.001010	0.004096
0.016000	0.100004	0.000000	0.100004	0.000000	0.001010	0.004097
0.018000	0.100004	0.000000	0.100004	0.000000	0.001010	0.004099
0.020000	0.100004	0.000000	0.100004	0.000000	0.001010	0.004100
0.022000	0.100004	0.000000	0.100004	0.000000	0.001010	0.004101
0.024000	0.100004	0.000000	0.100004	0.000000	0.001010	0.004102
0.026000	0.100004	0.000000	0.100004	0.000000	0.001010	0.004103
0.028000	0.100004	0.000000	0.100004	0.000000	0.001010	0.004103
0.030000	0.100004	0.000000	0.100004	0.000000	0.001010	0.004104
0.032000	0.100004	0.000000	0.100004	0.000000	0.001010	0.004104
0.034000	0.100004	0.000000	0.100004	0.000000	0.001010	0.004103
0.036000	0.100004	0.000000	0.100004	0.000000	0.001010	0.004103
0.038000	0.100004	0.000000	0.100004	0.000000	0.001010	0.004102
0.040000	0.100004	0.000000	0.100004	0.000000	0.001010	0.004101
0.042000	0.100004	0.000000	0.100004	0.000000	0.001010	0.004099
0.044000	0.100004	0.000000	0.100004	0.000000	0.001010	0.004097
0.046000	0.100004	0.000000	0.100004	0.000000	0.001010	0.004095
0.048000	0.100004	0.000000	0.100004	0.000000	0.001010	0.004093
0.050000	0.100004	0.000000	0.100004	0.000000	0.001010	0.004091
0.052000	0.100004	0.000000	0.100004	0.000000	0.001010	0.004089
0.054000	0.100004	0.000000	0.100004	0.000000	0.001010	0.004087
0.056000	0.100004	0.000000	0.100004	0.000000	0.001010	0.004085
0.058000	0.100004	0.000000	0.100004	0.000000	0.001010	0.004083
0.060000	0.100004	0.000000	0.100004	0.000000	0.001010	0.004082
0.062000	0.100004	0.000000	0.100004	0.000000	0.001010	0.004082
0.064000	0.100004	0.000000	0.100004	0.000000	0.001010	0.004082
0.066000	0.100004	0.000000	0.100004	0.000000	0.001010	0.004083
0.068000	0.100004	0.000000	0.100004	0.000000	0.001010	0.004085
0.070000	0.100004	0.000000	0.100004	0.000000	0.001010	0.004088
0.072000	0.100004	0.000000	0.100004	0.000000	0.001010	0.004092
0.074000	0.100004	0.000000	0.100004	0.000000	0.001010	0.004097
0.076000	0.100004	0.000000	0.100004	0.000000	0.001010	0.004102
0.078000	0.100004	0.000000	0.100004	0.000000	0.001010	0.004109
0.080000	0.100004	0.000000	0.100004	0.000000	0.001010	0.004117
0.082000	0.100004	0.000000	0.100004	0.000000	0.001010	0.004126
0.084000	0.100004	0.000000	0.100004	0.000000	0.001010	0.004135
0.086000	0.100004	0.000000	0.100004	0.000000	0.001010	0.004145
0.088000	0.100004	0.000000	0.100004	0.000001	0.001010	0.004155
0.090000	0.100004	0.000000	0.100004	0.000001	0.001010	0.004166
0.092000	0.100004	0.000000	0.100004	0.000001	0.001010	0.004178
0.094000	0.100004	0.000000	0.100004	0.000001	0.001010	0.004189
0.096000	0.100004	0.000000	0.100004	0.000001	0.001010	0.004200
0.098000	0.100004	0.000000	0.100004	0.000001	0.001010	0.004212
0.100000	0.100004	0.000000	0.100004	0.000001	0.001010	0.004223
0.102000	0.100004	0.000000	0.100004	0.000001	0.001010	0.004234
0.104000	0.100004	0.000000	0.100004	0.000001	0.001010	0.004245
0.106000	0.100004	0.000000	0.100004	0.000001	0.001010	0.004256
0.108000	0.100004	0.000000	0.100004	0.000001	0.001010	0.004266
0.110000	0.100004	0.000000	0.100004	0.000001	0.001010	0.004277
0.112000	0.100004	0.000000	0.100004	0.000002	0.001010	0.004287
0.114000	0.100004	0.000000	0.100004	0.000002	0.001010	0.004297
0.116000	0.100004	0.000000	0.100004	0.000002	0.001010	0.004307
0.118000	0.100004	0.000000	0.100004	0.000002	0.001010	0.004317
0.120000	0.100004	0.000000	0.100004	0.000002	0.001010	0.004327
0.122000	0.100004	0.000000	0.100004	0.000002	0.001010	0.004336
0.124000	0.100004	0.000000	0.100004	0.000002	0.001010	0.004346
0.126000	0.100004	0.000000	0.100004	0.000002	0.001010	0.004356
0.128000	0.100004	0.000000	0.100004	0.000002	0.001010	0.004367
0.130000	0.100004	0.000000	0.100004	0.000002	0.001010	0.004377
0.132000	0.100004	0.000000	0.100004	0.000002	0.001010	0.004387
0.134000	0.100004	0.000000	0.100004	0.000002	0.001010	0.004398
0.136000	0.100004	0.000000	0.100004	0.000002	0.001010	0.004408
0.138000	0.100004	0.000000	0.100004	0.000002	0.001010	0.004419
0.140000	0.100004	0.000000	0.100004	0.000003	0.001010	0.004429
0.142000	0.100004	0.000000	0.100004	0.000003	0.001010	0.004440
0.144000	0.100004	0.000000	0.100004	0.000003	0.001010	0.004450
0.146000	0.100004	0.000000	0.100004	0.000003	0.001010	0.004461
0.148000	0.100004	0.000000	0.100004	0.000003	0.001010	0.004471
0.150000	0.100004	0.000000	0.100004	0.000003	0.001010	0.004481
0.152000	0.100004	0.000000	0.100004	0.000003	0.001010	0.004492
0.154000	0.100005	0.000000	0.100005	0.000003	0.001010	0.004502
0.156000	0.100005	0.000000	0.100005	0.000003	0.001010	0.004511
0.158000	0.100005	0.000000	0.100005	0.000003	0.001010	0.004521
0.160000	0.100005	0.000000	0.100005	0.000003	0.001010	0.004531
0.162000	0.100005	0.000000	0.100005	0.000003	0.001010	0.004540
0.164000	0.100005	0.000000	0.100005	0.000003	0.001010	0.004549
0.166000	0.100005	0.000000	0.100005	0.000003	0.001010	0.004559
0.168000	0.100005	0.000000	0.100005	0.000003	0.001010	0.004568
0.170000	0.100005	0.000000	0.100005	0.000003	0.001010	0.004576
0.172000	0.100005	0.000000	0.100005	0.000003	0.001010	0.004585
0.174000	0.100005	0.000000	0.100005	0.000003	0.001010	0.004594
0.176000	0.100005	0.000000	0.100005	0.000003	0.001010	0.004602
0.178000	0.100005	0.000000	0.100005	0.000003	0.001010	0.004610
0.180000	0.100005	0.000000	0.100005	0.000003	0.001010	0.004619
0.182000	0.100005	0.000000	0.100005	0.000003	0.001010	0.004627
0.184000	0.100005	0.000000	0.100005	0.000003	0.001010	0.004634
0.186000	0.100005	0.000000	0.100005	0.000003	0.001010	0.004642
0.188000	0.100005	0.000000	0.100005	0.000003	0.001010	0.004650
0.190000	0.100005	0.000000	0.100005	0.000003	0.001010	0.004657
0.192000	0.100005	0.000000	0.100005	0.000003	0.001010	0.004665
0.194000	0.100005	0.000000	0.100005	0.000003	0.001010	0.004672
0.196000	0.100005	0.000000	0.100005	0.000004	0.001010	0.004679
0.198000	0.100005	0.000000	0.100005	0.000004	0.001010	0.004686
0.200000	0.100005	0.000000	0.100005	0.000004	0.001010	0.004693
0.202000	0.100005	0.000000	0.100005	0.000004	0.001010	0.004699
0.204000	0.100005	0.000000	0.100005	0.000004	0.001010	0.004706
0.206000	0.100005	0.000000	0.100005	0.000003	0.001010	0.004712
0.208000	0.100005	0.000000	0.100005	0.000003	0.001010	0.004718
0.210000	0.100005	0.000000	0.100005	0.000003	0.001010	0.004725
0.212000	0.100005	0.000000	0.100005	0.000003	0.001010	0.004731
0.214000	0.100005	0.000000	0.100005	0.000003	0.001010	0.004737
0.216000	0.100005	0.000000	0.100005	0.000003	0.001010	0.004743
0.218000	0.100005	0.000000	0.100005	0.000003	0.001010	0.004749
0.220000	0.100005	0.000000	0.100005	0.000003	0.001010	0.004755
0.222000	0.100005	0.000000	0.100005	0.000003	0.001010	0.004761
0.224000	0.100005	0.000000	0.100005	0.000003	0.001010	0.004768
0.226000	0.100005	0.000000	0.100005	0.000003	0.001010	0.004774
0.228000	0.100005	0.000000	0.100005	0.000003	0.001010	0.004781
0.230000	0.100005	0.000000	0.100005	0.000003	0.001010	0.004787
0.232000	0.100005	0.000000	0.100005	0.000003	0.001010	0.004794
0.234000	0.100005	0.000000	0.100005	0.000003	0.001010	0.004801
0.236000	0.100005	0.000000	0.100005	0.000003	0.001010	0.004808
0.238000	0.100005	0.000000	0.100005	0.000003	0.001010	0.004816
0.240000	0.100005	0.000000	0.100005	0.000003	0.001010	0.004824
0.242000	0.100005	0.000000	0.100005	0.000003	0.001010	0.004832
0.244000	0.100005	0.000000	0.100005	0.000003	0.001010	0.004841
0.246000	0.100005	0.000000	0.100005	0.000003	0.001010	0.004850
0.248000	0.100005	0.000000	0.100005	0.000003	0.001010	0.004859
0.250000	0.100005	0.000000	0.100005	0.000003	0.001010	0.004868
0.252000	0.100005	0.000000	0.100005	0.000003	0.001010	0.004878
0.254000	0.100005	0.000000	0.100005	0.000003	0.001010	0.004888
0.256000	0.100005	0.000000	0.100005	0.000003	0.001010	0.004898
0.258000	0.100005	0.000000	0.100005	0.000003	0.001010	0.004909
0.260000	0.100005	0.000000	0.100005	0.000003	0.001010	0.004919
0.262000	0.100005	0.000000	0.100005	0.000003	0.001010	0.004930
0.264000	0.100005	0.000000	0.100005	0.000003	0.001010	0.004940
0.266000	0.100005	0.000000	0.100005	0.000003	0.001010	0.004951
0.268000	0.100005	0.000000	0.100005	0.000003	0.001010	0.004961
0.270000	0.100005	0.000000	0.100005	0.000003	0.001010	0.004971
0.272000	0.100005	0.000000	0.100005	0.000003	0.001010	0.004981
0.274000	0.100005	0.000000	0.100005	0.000003	0.001010	0.004990
0.276000	0.100005	0.000000	0.100005	0.000003	0.001010	0.004999
0.278000	0.100005	0.003580	0.096425	0.000003	0.001029	0.005007
0.280000	0.100005	0.008000	0.092005	0.000003	0.001053	0.005015
0.282000	0.100005	0.012380	0.087625	0.000003	0.001079	0.005023
0.284000	0.100005	0.016720	0.083285	0.000004	0.001107	0.005030
0.286000	0.100005	0.021020	0.078985	0.000004	0.001137	0.005036
0.288000	0.100005	0.025280	0.074725	0.000004	0.001169	0.005041
0.290000	0.100005	0.029500	0.070505	0.000004	0.001203	0.005046
0.292000	0.100005	0.033680	0.066325	0.000004	0.001240	0.005049
0.294000	0.100005	0.037820	0.062185	0.000004	0.001281	0.005051
0.296000	0.100005	0.041920	0.058085	0.000004	0.001325	0.005051
0.298000	0.100005	0.045980	0.054025	0.000004	0.001374	0.005050
0.300000	0.100005	0.050000	0.050005	0.000004	0.001428	0.005047
0.302000	0.100005	0.053980	0.046025	0.000004	0.001489	0.005043
0.304000	0.100005	0.057920	0.042085	0.000004	0.001557	0.005037
0.306000	0.100005	0.061820	0.038185	0.000004	0.001635	0.005030
0.308000	0.100005	0.065680	0.034325	0.000004	0.001724	0.005022
0.310000	0.100005	0.069500	0.030505	0.000004	0.001829	0.005013
0.312000	0.100005	0.073280	0.026725	0.000004	0.001954	0.005000
0.314000	0.100005	0.077020	0.022985	0.000004	0.002107	0.004983
0.316000	0.100005	0.080720	0.019285	0.000004	0.002300	0.005003
0.318000	0.100005	0.084380	0.015625	0.000003	0.002556	0.005023
0.320000	0.100005	0.088000	0.012005	0.000020	0.002916	0.004596
0.322000	0.100002	0.091580	0.008422	-0.000060	0.003481	0.001862
0.324000	0.100076	0.095120	0.004956	0.001448	0.004537	0.076498
0.326000	0.099620	0.098620	0.001000	0.000000	0.000000	-0.380090
0.328000	0.102658	0.102080	0.000578	0.000000	0.000000	-0.421571
0.330000	0.106500	0.105500	0.001000	0.000000	0.000000	0.000000
0.332000	0.109880	0.108880	0.001000	0.000000	0.000000	0.000000
0.334000	0.113220	0.112220	0.001000	0.000000	0.000000	0.000000
0.336000	0.116520	0.115520	0.001000	0.000000	0.000000	0.000000
0.338000	0.119780	0.118780	0.001000	0.000000	0.000000	0.000000
0.340000	0.123000	0.122000	0.001000	0.000000	0.000000	0.000000
0.342000	0.126180	0.125180	0.001000	0.000000	0.000000	0.000000
0.344000	0.129320	0.128320	0.001000	0.000000	0.000000	0.000000
0.346000	0.132420	0.131420	0.001000	0.000000	0.000000	0.000000
0.348000	0.135480	0.134480	0.001000	0.000000	0.000000	0.000000
0.350000	0.138500	0.137500	0.001000	0.000000	0.000000	0.000000
0.352000	0.141480	0.140480	0.001000	0.000000	0.000000	0.000000
0.354000	0.144420	0.143420	0.001000	0.000000	0.000000	0.000000
0.356000	0.147320	0.146320	0.001000	0.000000	0.000000	0.000000
0.358000	0.150180	0.149180	0.001000	0.000000	0.000000	0.000000
0.360000	0.153000	0.152000	0.001000	0.000000	0.000000	0.000000
0.362000	0.155780	0.154780	0.001000	0.000000	0.000000	0.000000
0.364000	0.158520	0.157520	0.001000	0.000000	0.000000	0.000000
0.366000	0.161220	0.160220	0.001000	0.000000	0.000000	0.000000
0.368000	0.163880	0.162880	0.001000	0.000000	0.000000	0.000000
0.370000	0.166500	0.165500	0.001000	0.000000	0.000000	0.000000
0.372000	0.169080	0.168080	0.001000	0.000000	0.000000	0.000000
0.374000	0.171620	0.170620	0.001000	0.000000	0.000000	0.000000
0.376000	0.174120	0.173120	0.001000	0.000000	0.000000	0.000000
0.378000	0.176580	0.175580	0.001000	0.000000	0.000000	0.000000
0.380000	0.179000	0.178000	0.001000	0.000000	0.000000	0.000000
0.382000	0.181380	0.180380	0.001000	0.000000	0.000000	0.000000
0.384000	0.183720	0.182720	0.001000	0.000000	0.000000	0.000000
0.386000	0.186020	0.185020	0.001000	0.000000	0.000000	0.000000
0.388000	0.188280	0.187280	0.001000	0.000000	0.000000	0.000000
0.390000	0.190500	0.189500	0.001000	0.000000	0.000000	0.000000
0.392000	0.192680	0.191680	0.001000	0.000000	0.000000	0.000000
0.394000	0.194820	0.193820	0.001000	0.000000	0.000000	0.000000
0.396000	0.196920	0.195920	0.001000	0.000000	0.000000	0.000000
0.398000	0.198980	0.197980	0.001000	0.000000	0.000000	0.000000
0.400000	0.201000	0.200000	0.001000	0.000000	0.000000	0.000000
0.402000	0.202980	0.201980	0.001000	0.000000	0.000000	0.000000
0.404000	0.204920	0.203920	0.001000	0.000000	0.000000	0.000000
0.406000	0.206820	0.205820	0.001000	0.000000	0.000000	0.000000
0.408000	0.208680	0.207680	0.001000	0.000000	0.000000	0.000000
0.410000	0.210500	0.209500	0.001000	0.000000	0.000000	0.000000
0.412000	0.212280	0.211280	0.001000	0.000000	0.000000	0.000000
0.414000	0.214020	0.213020	0.001000	0.000000	0.000000	0.000000
0.416000	0.215720	0.214720	0.001000	0.000000	0.000000	0.000000
0.418000	0.217380	0.216380	0.001000	0.000000	0.000000	0.000000
0.420000	0.219000	0.218000	0.001000	0.000000	0.000000	0.000000
0.422000	0.220580	0.219580	0.001000	0.000000	0.000000	0.000000
0.424000	0.222120	0.221120	0.001000	0.000000	0.000000	0.000000
0.426000	0.223620	0.222620	0.001000	0.000000	0.000000	0.000000
0.428000	0.225080	0.224080	0.001000	0.000000	0.000000	0.000000
0.430000	0.226500	0.225500	0.001000	0.000000	0.000000	0.000000
0.432000	0.227880	0.226880	0.001000	0.000000	0.000000	0.000000
0.434000	0.229220	0.228220	0.001000	0.000000	0.000000	0.000000
0.436000	0.230520	0.229520	0.001000	0.000000	0.000000	0.000000
0.438000	0.231780	0.230780	0.001000	0.000000	0.000000	0.000000
0.440000	0.233000	0.232000	0.001000	0.000000	0.000000	0.000000
0.442000	0.234180	0.233180	0.001000	0.000000	0.000000	0.000000
0.444000	0.235320	0.234320	0.001000	0.000000	0.000000	0.000000
0.446000	0.236420	0.235420	0.001000	0.000000	0.000000	0.000000
0.448000	0.237480	0.236480	0.001000	0.000000	0.000000	0.000000
0.450000	0.238500	0.237500	0.001000	0.000000	0.000000	0.000000
0.452000	0.239480	0.238480	0.001000	0.000000	0.000000	0.000000
0.454000	0.240420	0.239420	0.001000	0.000000	0.000000	0.000000
0.456000	0.241320	0.240320	0.001000	0.000000	0.000000	0.000000
0.458000	0.242180	0.241180	0.001000	0.000000	0.000000	0.000000
0.460000	0.243000	0.242000	0.001000	0.000000	0.000000	0.000000
0.462000	0.243780	0.242780	0.001000	0.000000	0.000000	0.000000
0.464000	0.244520	0.243520	0.001000	0.000000	0.000000	0.000000
0.466000	0.245220	0.244220	0.001000	0.000000	0.000000	0.000000
0.468000	0.245880	0.244880	0.001000	0.000000	0.000000	0.000000
0.470000	0.246500	0.245500	0.001000	0.000000	0.000000	0.000000
0.472000	0.247080	0.246080	0.001000	0.000000	0.000000	0.000000
0.474000	0.247620	0.246620	0.001000	0.000000	0.000000	0.000000
0.476000	0.248120	0.247120	0.001000	0.000000	0.000000	0.000000
0.478000	0.248580	0.247580	0.001000	0.000000	0.000000	0.000000
0.480000	0.249000	0.248000	0.001000	0.000000	0.000000	0.000000
0.482000	0.249380	0.248380	0.001000	0.000000	0.000000	0.000000
0.484000	0.249720	0.248720	0.001000	0.000000	0.000000	0.000000
0.486000	0.250020	0.249020	0.001000	0.000000	0.000000	0.000000
0.488000	0.250280	0.249280	0.001000	0.000000	0.000000	0.000000
0.490000	0.250500	0.249500	0.001000	0.000000	0.000000	0.000000
0.492000	0.250680	0.249680	0.001000	0.000000	0.000000	0.000000
0.494000	0.250820	0.249820	0.001000	0.000000	0.000000	0.000000
0.496000	0.250920	0.249920	0.001000	0.000000	0.000000	0.000000
0.498000	0.250980	0.249980	0.001000	0.000000	0.000000	0.000000
0.500000	0.251000	0.250000	0.001000	0.000000	0.000000	0.000000
0.502000	0.250980	0.249980	0.001000	0.000000	0.000000	0.000000
0.504000	0.250920	0.249920	0.001000	0.000000	0.000000	0.000000
0.506000	0.250820	0.249820	0.001000	0.000000	0.000000	0.000000
0.508000	0.250680	0.249680	0.001000	0.000000	0.000000	0.000000
0.510000	0.250500	0.249500	0.001000	0.000000	0.000000	0.000000
0.512000	0.250280	0.249280	0.001000	0.000000	0.000000	0.000000
0.514000	0.250020	0.249020	0.001000	0.000000	0.000000	0.000000
0.516000	0.249720	0.248720	0.001000	0.000000	0.000000	0.000000
0.518000	0.249380	0.248380	0.001000	0.000000	0.000000	0.000000
0.520000	0.249000	0.248000	0.001000	0.000000	0.000000	0.000000
0.522000	0.248580	0.247580	0.001000	0.000000	0.000000	0.000000
0.524000	0.248120	0.247120	0.001000	0.000000	0.000000	0.000000
0.526000	0.247620	0.246620	0.001000	0.000000	0.000000	0.000000
0.528000	0.247080	0.246080	0.001000	0.000000	0.000000	0.000000
0.530000	0.246500	0.245500	0.001000	0.000000	0.000000	0.000000
0.532000	0.245880	0.244880	0.001000	0.000000	0.000000	0.000000
0.534000	0.245220	0.244220	0.001000	0.000000	0.000000	0.000000
0.536000	0.244520	0.243520	0.001000	0.000000	0.000000	0.000000
0.538000	0.243780	0.242780	0.001000	0.000000	0.000000	0.000000
0.540000	0.243000	0.242000	0.001000	0.000000	0.000000	0.000000
0.542000	0.242180	0.241180	0.001000	0.000000	0.000000	0.000000
0.544000	0.241320	0.240320	0.001000	0.000000	0.000000	0.000000
0.546000	0.240420	0.239420	0.001000	0.000000	0.000000	0.000000
0.548000	0.239480	0.238480	0.001000	0.000000	0.000000	0.000000
0.550000	0.238500	0.237500	0.001000	0.000000	0.000000	0.000000
0.552000	0.237480	0.236480	0.001000	0.000000	0.000000	0.000000
0.554000	0.236420	0.235420	0.001000	0.000000	0.000000	0.000000
0.556000	0.235320	0.234320	0.001000	0.000000	0.000000	0.000000
0.558000	0.234180	0.233180	0.001000	0.000000	0.000000	0.000000
0.560000	0.233000	0.232000	0.001000	0.000000	0.000000	0.000000
0.562000	0.231780	0.230780	0.001000	0.000000	0.000000	0.000000
0.564000	0.230520	0.229520	0.001000	0.000000	0.000000	0.000000
0.566000	0.229220	0.228220	0.001000	0.000000	0.000000	0.000000
0.568000	0.227880	0.226880	0.001000	0.000000	0.000000	0.000000
0.570000	0.226500	0.225500	0.001000	0.000000	0.000000	0.000000
0.572000	0.225080	0.224080	0.001000	0.000000	0.000000	0.000000
0.574000	0.223620	0.222620	0.001000	0.000000	0.000000	0.000000
0.576000	0.222120	0.221120	0.001000	0.000000	0.000000	0.000000
0.578000	0.220580	0.219580	0.001000	0.000000	0.000000	0.000000
0.580000	0.219000	0.218000	0.001000	0.000000	0.000000	0.000000
0.582000	0.217380	0.216380	0.001000	0.000000	0.000000	0.000000
0.584000	0.215720	0.214720	0.001000	0.000000	0.000000	0.000000
0.586000	0.214020	0.213020	0.001000	0.000000	0.000000	0.000000
0.588000	0.212280	0.211280	0.001000	0.000000	0.000000	0.000000
0.590000	0.210500	0.209500	0.001000	0.000000	0.000000	0.000000
0.592000	0.208680	0.207680	0.001000	0.000000	0.000000	0.000000
0.594000	0.206820	0.205820	0.001000	0.000000	0.000000	0.000000
0.596000	0.204920	0.203920	0.001000	0.000000	0.000000	0.000000
0.598000	0.202980	0.201980	0.001000	0.000000	0.000000	0.000000
0.600000	0.201000	0.200000	0.001000	0.000000	0.000000	0.000000
0.602000	0.198980	0.197980	0.001000	0.000000	0.000000	0.000000
0.604000	0.196920	0.195920	0.001000	0.000000	0.000000	0.000000
0.606000	0.194820	0.193820	0.001000	0.000000	0.000000	0.000000
0.608000	0.192680	0.191680	0.001000	0.000000	0.000000	0.000000
0.610000	0.190500	0.189500	0.001000	0.000000	0.000000	0.000000
0.612000	0.188280	0.187280	0.001000	0.000000	0.000000	0.000000
0.614000	0.186020	0.185020	0.001000	0.000000	0.000000	0.000000
0.616000	0.183720	0.182720	0.001000	0.000000	0.000000	0.000000
0.618000	0.181380	0.180380	0.001000	0.000000	0.000000	0.000000
0.620000	0.179000	0.178000	0.001000	0.000000	0.000000	0.000000
0.622000	0.176580	0.175580	0.001000	0.000000	0.000000	0.000000
0.624000	0.174120	0.173120	0.001000	0.000000	0.000000	0.000000
0.626000	0.171620	0.170620	0.001000	0.000000	0.000000	0.000000
0.628000	0.169080	0.168080	0.001000	0.000000	0.000000	0.000000
0.630000	0.166500	0.165500	0.001000	0.000000	0.000000	0.000000
0.632000	0.163880	0.162880	0.001000	0.000000	0.000000	0.000000
0.634000	0.161220	0.160220	0.001000	0.000000	0.000000	0.000000
0.636000	0.158520	0.157520	0.001000	0.000000	0.000000	0.000000
0.638000	0.155780	0.154780	0.001000	0.000000	0.000000	0.000000
0.640000	0.153000	0.152000	0.001000	0.000000	0.000000	0.000000
0.642000	0.150180	0.149180	0.001000	0.000000	0.000000	0.000000
0.644000	0.147320	0.146320	0.001000	0.000000	0.000000	0.000000
0.646000	0.144420	0.143420	0.001000	0.000000	0.000000	0.000000
0.648000	0.141480	0.140480	0.001000	0.000000	0.000000	0.000000
0.650000	0.138500	0.137500	0.001000	0.000000	0.000000	0.000000
0.652000	0.135480	0.134480	0.001000	0.000000	0.000000	0.000000
0.654000	0.132420	0.131420	0.001000	0.000000	0.000000	0.000000
0.656000	0.129320	0.128320	0.001000	0.000000	0.000000	0.000000
0.658000	0.126180	0.125180	0.001000	0.000000	0.000000	0.000000
0.660000	0.123000	0.122000	0.001000	0.000000	0.000000	0.000000
0.662000	0.119780	0.118780	0.001000	0.000000	0.000000	0.000000
0.664000	0.116520	0.115520	0.001000	0.000000	0.000000	0.000000
0.666000	0.113220	0.112220	0.001000	0.000000	0.000000	0.000000
0.668000	0.109880	0.108880	0.001000	0.000000	0.000000	0.000000
0.670000	0.106500	0.105500	0.001000	0.000000	0.000000	0.000000
0.672000	0.102658	0.102080	0.000578	0.000000	0.000000	-0.421571
0.674000	0.099620	0.098620	0.001000	0.000000	0.000000	-0.380090
0.676000	0.100076	0.095120	0.004956	-0.001448	0.004537	0.076498
0.678000	0.100002	0.091580	0.008422	0.000060	0.003481	0.001862
0.680000	0.100005	0.088000	0.012005	-0.000020	0.002916	0.004596
0.682000	0.100005	0.084380	0.015625	-0.000003	0.002556	0.005023
0.684000	0.100005	0.080720	0.019285	-0.000004	0.002300	0.005003
0.686000	0.100005	0.077020	0.022985	-0.000004	0.002107	0.004983
0.688000	0.100005	0.073280	0.026725	-0.000004	0.001954	0.005000
0.690000	0.100005	0.069500	0.030505	-0.000004	0.001829	0.005013
0.692000	0.100005	0.065680	0.034325	-0.000004	0.001724	0.005022
0.694000	0.100005	0.061820	0.038185	-0.000004	0.001635	0.005030
0.696000	0.100005	0.057920	0.042085	-0.000004	0.001557	0.005037
0.698000	0.100005	0.053980	0.046025	-0.000004	0.001489	0.005043
0.700000	0.100005	0.050000	0.050005	-0.000004	0.001428	0.005047
0.702000	0.100005	0.045980	0.054025	-0.000004	0.001374	0.005050
0.704000	0.100005	0.041920	0.058085	-0.000004	0.001325	0.005051
0.706000	0.100005	0.037820	0.062185	-0.000004	0.001281	0.005051
0.708000	0.100005	0.033680	0.066325	-0.000004	0.001240	0.005049
0.710000	0.100005	0.029500	0.070505	-0.000004	0.001203	0.005046
0.712000	0.100005	0.025280	0.074725	-0.000004	0.001169	0.005041
0.714000	0.100005	0.021020	0.078985	-0.000004	0.001137	0.005036
0.716000	0.100005	0.016720	0.083285	-0.000004	0.001107	0.005030
0.718000	0.100005	0.012380	0.087625	-0.000003	0.001079	0.005023
0.720000	0.100005	0.008000	0.092005	-0.000003	0.001053	0.005015
0.722000	0.100005	0.003580	0.096425	-0.000003	0.001029	0.005007
0.724000	0.100005	0.000000	0.100005	-0.000003	0.001010	0.004999
0.726000	0.100005	0.000000	0.100005	-0.000003	0.001010	0.004990
0.728000	0.100005	0.000000	0.100005	-0.000003	0.001010	0.004981
0.730000	0.100005	0.000000	0.100005	-0.000003	0.001010	0.004971
0.732000	0.100005	0.000000	0.100005	-0.000003	0.001010	0.004961
0.734000	0.100005	0.000000	0.100005	-0.000003	0.001010	0.004951
0.736000	0.100005	0.000000	0.100005	-0.000003	0.001010	0.004940
0.738000	0.100005	0.000000	0.100005	-0.000003	0.001010	0.004930
0.740000	0.100005	0.000000	0.100005	-0.000003	0.001010	0.004919
0.742000	0.100005	0.000000	0.100005	-0.000003	0.001010	0.004909
0.744000	0.100005	0.000000	0.100005	-0.000003	0.001010	0.004898
0.746000	0.100005	0.000000	0.100005	-0.000003	0.001010	0.004888
0.748000	0.100005	0.000000	0.100005	-0.000003	0.001010	0.004878
0.750000	0.100005	0.000000	0.100005	-0.000003	0.001010	0.004868
0.752000	0.100005	0.000000	0.100005	-0.000003	0.001010	0.004859
0.754000	0.100005	0.000000	0.100005	-0.000003	0.001010	0.004850
0.756000	0.100005	0.000000	0.100005	-0.000003	0.001010	0.004841
0.758000	0.100005	0.000000	0.100005	-0.000003	0.001010	0.004832
0.760000	0.100005	0.000000	0.100005	-0.000003	0.001010	0.004824
0.762000	0.100005	0.000000	0.100005	-0.000003	0.001010	0.004816
0.764000	0.100005	0.000000	0.100005	-0.000003	0.001010	0.004808
0.766000	0.100005	0.000000	0.100005	-0.000003	0.001010	0.004801
0.768000	0.100005	0.000000	0.100005	-0.000003	0.001010	0.004794
0.770000	0.100005	0.000000	0.100005	-0.000003	0.001010	0.004787
0.772000	0.100005	0.000000	0.100005	-0.000003	0.001010	0.004781
0.774000	0.100005	0.000000	0.100005	-0.000003	0.001010	0.004774
0.776000	0.100005	0.000000	0.100005	-0.000003	0.001010	0.004768
0.778000	0.100005	0.000000	0.100005	-0.000003	0.001010	0.004761
0.780000	0.100005	0.000000	0.100005	-0.000003	0.001010	0.004755
0.782000	0.100005	0.000000	0.100005	-0.000003	0.001010	0.004749
0.784000	0.100005	0.000000	0.100005	-0.000003	0.001010	0.004743
0.786000	0.100005	0.000000	0.100005	-0.000003	0.001010	0.004737
0.788000	0.100005	0.000000	0.100005	-0.000003	0.001010	0.004731
0.790000	0.100005	0.000000	0.100005	-0.000003	0.001010	0.004725
0.792000	0.100005	0.000000	0.100005	-0.000003	0.001010	0.004718
0.794000	0.100005	0.000000	0.100005	-0.000003	0.001010	0.004712
0.796000	0.100005	0.000000	0.100005	-0.000004	0.001010	0.004706
0.798000	0.100005	0.000000	0.100005	-0.000004	0.001010	0.004699
0.800000	0.100005	0.000000	0.100005	-0.000004	0.001010	0.004693
0.802000	0.100005	0.000000	0.100005	-0.000004	0.001010	0.004686
0.804000	0.100005	0.000000	0.100005	-0.000004	0.001010	0.004679
0.806000	0.100005	0.000000	0.100005	-0.000003	0.001010	0.004672
0.808000	0.100005	0.000000	0.100005	-0.000003	0.001010	0.004665
0.810000	0.100005	0.000000	0.100005	-0.000003	0.001010	0.004657
0.812000	0.100005	0.000000	0.100005	-0.000003	0.001010	0.004650
0.814000	0.100005	0.000000	0.100005	-0.000003	0.001010	0.004642
0.816000	0.100005	0.000000	0.100005	-0.000003	0.001010	0.004634
0.818000	0.100005	0.000000	0.100005	-0.000003	0.001010	0.004627
0.820000	0.100005	0.000000	0.100005	-0.000003	0.001010	0.004619
0.822000	0.100005	0.000000	0.100005	-0.000003	0.001010	0.004610
0.824000	0.100005	0.000000	0.100005	-0.000003	0.001010	0.004602
0.826000	0.100005	0.000000	0.100005	-0.000003	0.001010	0.004594
0.828000	0.100005	0.000000	0.100005	-0.000003	0.001010	0.004585
0.830000	0.100005	0.000000	0.100005	-0.000003	0.001010	0.004576
0.832000	0.100005	0.000000	0.100005	-0.000003	0.001010	0.004568
0.834000	0.100005	0.000000	0.100005	-0.000003	0.001010	0.004559
0.836000	0.100005	0.000000	0.100005	-0.000003	0.001010	0.004549
0.838000	0.100005	0.000000	0.100005	-0.000003	0.001010	0.004540
0.840000	0.100005	0.000000	0.100005	-0.000003	0.001010	0.004531
0.842000	0.100005	0.000000	0.100005	-0.000003	0.001010	0.004521
0.844000	0.100005	0.000000	0.100005	-0.000003	0.001010	0.004511
0.846000	0.100005	0.000000	0.100005	-0.000003	0.001010	0.004502
0.848000	0.100004	0.000000	0.100004	-0.000003	0.001010	0.004492
0.850000	0.100004	0.000000	0.100004	-0.000003	0.001010	0.004481
0.852000	0.100004	0.000000	0.100004	-0.000003	0.001010	0.004471
0.854000	0.100004	0.000000	0.100004	-0.000003	0.001010	0.004461
0.856000	0.100004	0.000000	0.100004	-0.000003	0.001010	0.004450
0.858000	0.100004	0.000000	0.100004	-0.000003	0.001010	0.004440
0.860000	0.100004	0.000000	0.100004	-0.000003	0.001010	0.004429
0.862000	0.100004	0.000000	0.100004	-0.000002	0.001010	0.004419
0.864000	0.100004	0.000000	0.100004	-0.000002	0.001010	0.004408
0.866000	0.100004	0.000000	0.100004	-0.000002	0.001010	0.004398
0.868000	0.100004	0.000000	0.100004	-0.000002	0.001010	0.004387
0.870000	0.100004	0.000000	0.100004	-0.000002	0.001010	0.004377
0.872000	0.100004	0.000000	0.100004	-0.000002	0.001010	0.004367
0.874000	0.100004	0.000000	0.100004	-0.000002	0.001010	0.004356
0.876000	0.100004	0.000000	0.100004	-0.000002	0.001010	0.004346
0.878000	0.100004	0.000000	0.100004	-0.000002	0.001010	0.004336
0.880000	0.100004	0.000000	0.100004	-0.000002	0.001010	0.004327
0.882000	0.100004	0.000000	0.100004	-0.000002	0.001010	0.004317
0.884000	0.100004	0.000000	0.100004	-0.000002	0.001010	0.004307
0.886000	0.100004	0.000000	0.100004	-0.000002	0.001010	0.004297
0.888000	0.100004	0.000000	0.100004	-0.000002	0.001010	0.004287
0.890000	0.100004	0.000000	0.100004	-0.000001	0.001010	0.004277
0.892000	0.100004	0.000000	0.100004	-0.000001	0.001010	0.004266
0.894000	0.100004	0.000000	0.100004	-0.000001	0.001010	0.004256
0.896000	0.100004	0.000000	0.100004	-0.000001	0.001010	0.004245
0.898000	0.100004	0.000000	0.100004	-0.000001	0.001010	0.004234
0.900000	0.100004	0.000000	0.100004	-0.000001	0.001010	0.004223
0.902000	0.100004	0.000000	0.100004	-0.000001	0.001010	0.004212
0.904000	0.100004	0.000000	0.100004	-0.000001	0.001010	0.004200
0.906000	0.100004	0.000000	0.100004	-0.000001	0.001010	0.004189
0.908000	0.100004	0.000000	0.100004	-0.000001	0.001010	0.004178
0.910000	0.100004	0.000000	0.100004	-0.000001	0.001010	0.004166
0.912000	0.100004	0.000000	0.100004	-0.000001	0.001010	0.004155
0.914000	0.100004	0.000000	0.100004	-0.000000	0.001010	0.004145
0.916000	0.100004	0.000000	0.100004	-0.000000	0.001010	0.004135
0.918000	0.100004	0.000000	0.100004	-0.000000	0.001010	0.004126
0.920000	0.100004	0.000000	0.100004	-0.000000	0.001010	0.004117
0.922000	0.100004	0.000000	0.100004	-0.000000	0.001010	0.004109
0.924000	0.100004	0.000000	0.100004	-0.000000	0.001010	0.004102
0.926000	0.100004	0.000000	0.100004	-0.000000	0.001010	0.004097
0.928000	0.100004	0.000000	0.100004	-0.000000	0.001010	0.004092
0.930000	0.100004	0.000000	0.100004	-0.000000	0.001010	0.004088
0.932000	0.100004	0.000000	0.100004	-0.000000	0.001010	0.004085
0.934000	0.100004	0.000000	0.100004	-0.000000	0.001010	0.004083
0.936000	0.100004	0.000000	0.100004	-0.000000	0.001010	0.004082
0.938000	0.100004	0.000000	0.100004	-0.000000	0.001010	0.004082
0.940000	0.100004	0.000000	0.100004	-0.000000	0.001010	0.004082
0.942000	0.100004	0.000000	0.100004	-0.000000	0.001010	0.004083